
     Program PWSCF v.7.2 starts on 11Apr2025 at 13:50:52 

     This program is part of the open-source Quantum ESPRESSO suite
     for quantum simulation of materials; please cite
         "P. Giannozzi et al., J. Phys.:Condens. Matter 21 395502 (2009);
         "P. Giannozzi et al., J. Phys.:Condens. Matter 29 465901 (2017);
         "P. Giannozzi et al., J. Chem. Phys. 152 154105 (2020);
          URL http://www.quantum-espresso.org", 
     in publications or presentations arising from this work. More details at
     http://www.quantum-espresso.org/quote

     Parallel version (MPI), running on    16 processors

     MPI processes distributed on     1 nodes
     156827 MiB available memory on the printing compute node when the environment starts
 
     Waiting for input...
     Reading input from standard input

     Current dimensions of program PWSCF are:
     Max number of different atomic species (ntypx) = 10
     Max number of k-points (npk) =  40000
     Max angular momentum in pseudopotentials (lmaxx) =  4

     File ./tmp/TiO.update deleted, as requested

     File ./tmp/TiO.bfgs deleted, as requested
     file Ti.pbe-spn-kjpaw_psl.1.0.0.UPF: wavefunction(s)  3S 3P 3D renormalized
     file O.pbe-n-kjpaw_psl.1.0.0.UPF: wavefunction(s)  2S 2P renormalized
 
     K-points division:     npool     =       2
     R & G space division:  proc/nbgrp/npool/nimage =       8
     Subspace diagonalization in iterative solution of the eigenvalue problem:
     a serial algorithm will be used

 
     Parallelization info
     --------------------
     sticks:   dense  smooth     PW     G-vecs:    dense   smooth      PW
     Min          26      26      8                  275      275      58
     Max          28      28      9                  276      276      63
     Sum         213     213     69                 2205     2205     485
 
     Using Slab Decomposition
 


     bravais-lattice index     =            1
     lattice parameter (alat)  =       3.0330  a.u.
     unit-cell volume          =      27.9020 (a.u.)^3
     number of atoms/cell      =            2
     number of atomic types    =            2
     number of electrons       =        18.00
     number of Kohn-Sham states=           13
     kinetic-energy cutoff     =      70.0000  Ry
     charge density cutoff     =     280.0000  Ry
     scf convergence threshold =      1.0E-12
     mixing beta               =       0.2000
     number of iterations used =            8  plain     mixing
     energy convergence thresh.=      1.0E-05
     force convergence thresh. =      1.0E-04
     press convergence thresh. =      5.0E-01
     Exchange-correlation= SLA  PW   PBX  PBC
                           (   1   4   3   4   0   0   0)
     nstep                     =         1000


     celldm(1)=   3.033043  celldm(2)=   0.000000  celldm(3)=   0.000000
     celldm(4)=   0.000000  celldm(5)=   0.000000  celldm(6)=   0.000000

     crystal axes: (cart. coord. in units of alat)
               a(1) = (   1.000000   0.000000   0.000000 )  
               a(2) = (   0.000000   1.000000   0.000000 )  
               a(3) = (   0.000000   0.000000   1.000000 )  

     reciprocal axes: (cart. coord. in units 2 pi/alat)
               b(1) = (  1.000000  0.000000  0.000000 )  
               b(2) = (  0.000000  1.000000  0.000000 )  
               b(3) = (  0.000000  0.000000  1.000000 )  


     PseudoPot. # 1 for Ti read from file:
     ./Ti.pbe-spn-kjpaw_psl.1.0.0.UPF
     MD5 check sum: 01f69b0d8ba4438b2e03ac6ea4af1c0b
     Pseudo is Projector augmented-wave + core cor, Zval = 12.0
     Generated using &quot;atomic&quot; code by A. Dal Corso  v.6.2.2
     Shape of augmentation charge: PSQ
     Using radial grid of 1177 points,  6 beta functions with: 
                l(1) =   0
                l(2) =   0
                l(3) =   1
                l(4) =   1
                l(5) =   2
                l(6) =   2
     Q(r) pseudized with 0 coefficients 


     PseudoPot. # 2 for O  read from file:
     ./O.pbe-n-kjpaw_psl.1.0.0.UPF
     MD5 check sum: e99d9cef9b487d1ca56f5b95ecd0fd7a
     Pseudo is Projector augmented-wave + core cor, Zval =  6.0
     Generated using &quot;atomic&quot; code by A. Dal Corso  v.6.3
     Shape of augmentation charge: PSQ
     Using radial grid of 1095 points,  4 beta functions with: 
                l(1) =   0
                l(2) =   0
                l(3) =   1
                l(4) =   1
     Q(r) pseudized with 0 coefficients 


     atomic species   valence    mass     pseudopotential
        Ti            12.00    47.86700     Ti( 1.00)
        O              6.00    15.99900     O ( 1.00)

     48 Sym. Ops., with inversion, found



   Cartesian axes

     site n.     atom                  positions (alat units)
         1           Ti  tau(   1) = (   0.0000000   0.0000000   0.0000000  )
         2           O   tau(   2) = (   0.5000000   0.5000000   0.5000000  )

     number of k points=    56  Methfessel-Paxton smearing, width (Ry)=  0.0200
                       cart. coord. in units 2pi/alat
        k(    1) = (   0.0000000   0.0000000   0.0000000), wk =   0.0020000
        k(    2) = (   0.0000000   0.0000000   0.1000000), wk =   0.0120000
        k(    3) = (   0.0000000   0.0000000   0.2000000), wk =   0.0120000
        k(    4) = (   0.0000000   0.0000000   0.3000000), wk =   0.0120000
        k(    5) = (   0.0000000   0.0000000   0.4000000), wk =   0.0120000
        k(    6) = (   0.0000000   0.0000000  -0.5000000), wk =   0.0060000
        k(    7) = (   0.0000000   0.1000000   0.1000000), wk =   0.0240000
        k(    8) = (   0.0000000   0.1000000   0.2000000), wk =   0.0480000
        k(    9) = (   0.0000000   0.1000000   0.3000000), wk =   0.0480000
        k(   10) = (   0.0000000   0.1000000   0.4000000), wk =   0.0480000
        k(   11) = (   0.0000000   0.1000000  -0.5000000), wk =   0.0240000
        k(   12) = (   0.0000000   0.2000000   0.2000000), wk =   0.0240000
        k(   13) = (   0.0000000   0.2000000   0.3000000), wk =   0.0480000
        k(   14) = (   0.0000000   0.2000000   0.4000000), wk =   0.0480000
        k(   15) = (   0.0000000   0.2000000  -0.5000000), wk =   0.0240000
        k(   16) = (   0.0000000   0.3000000   0.3000000), wk =   0.0240000
        k(   17) = (   0.0000000   0.3000000   0.4000000), wk =   0.0480000
        k(   18) = (   0.0000000   0.3000000  -0.5000000), wk =   0.0240000
        k(   19) = (   0.0000000   0.4000000   0.4000000), wk =   0.0240000
        k(   20) = (   0.0000000   0.4000000  -0.5000000), wk =   0.0240000
        k(   21) = (   0.0000000  -0.5000000  -0.5000000), wk =   0.0060000
        k(   22) = (   0.1000000   0.1000000   0.1000000), wk =   0.0160000
        k(   23) = (   0.1000000   0.1000000   0.2000000), wk =   0.0480000
        k(   24) = (   0.1000000   0.1000000   0.3000000), wk =   0.0480000
        k(   25) = (   0.1000000   0.1000000   0.4000000), wk =   0.0480000
        k(   26) = (   0.1000000   0.1000000  -0.5000000), wk =   0.0240000
        k(   27) = (   0.1000000   0.2000000   0.2000000), wk =   0.0480000
        k(   28) = (   0.1000000   0.2000000   0.3000000), wk =   0.0960000
        k(   29) = (   0.1000000   0.2000000   0.4000000), wk =   0.0960000
        k(   30) = (   0.1000000   0.2000000  -0.5000000), wk =   0.0480000
        k(   31) = (   0.1000000   0.3000000   0.3000000), wk =   0.0480000
        k(   32) = (   0.1000000   0.3000000   0.4000000), wk =   0.0960000
        k(   33) = (   0.1000000   0.3000000  -0.5000000), wk =   0.0480000
        k(   34) = (   0.1000000   0.4000000   0.4000000), wk =   0.0480000
        k(   35) = (   0.1000000   0.4000000  -0.5000000), wk =   0.0480000
        k(   36) = (   0.1000000  -0.5000000  -0.5000000), wk =   0.0120000
        k(   37) = (   0.2000000   0.2000000   0.2000000), wk =   0.0160000
        k(   38) = (   0.2000000   0.2000000   0.3000000), wk =   0.0480000
        k(   39) = (   0.2000000   0.2000000   0.4000000), wk =   0.0480000
        k(   40) = (   0.2000000   0.2000000  -0.5000000), wk =   0.0240000
        k(   41) = (   0.2000000   0.3000000   0.3000000), wk =   0.0480000
        k(   42) = (   0.2000000   0.3000000   0.4000000), wk =   0.0960000
        k(   43) = (   0.2000000   0.3000000  -0.5000000), wk =   0.0480000
        k(   44) = (   0.2000000   0.4000000   0.4000000), wk =   0.0480000
        k(   45) = (   0.2000000   0.4000000  -0.5000000), wk =   0.0480000
        k(   46) = (   0.2000000  -0.5000000  -0.5000000), wk =   0.0120000
        k(   47) = (   0.3000000   0.3000000   0.3000000), wk =   0.0160000
        k(   48) = (   0.3000000   0.3000000   0.4000000), wk =   0.0480000
        k(   49) = (   0.3000000   0.3000000  -0.5000000), wk =   0.0240000
        k(   50) = (   0.3000000   0.4000000   0.4000000), wk =   0.0480000
        k(   51) = (   0.3000000   0.4000000  -0.5000000), wk =   0.0480000
        k(   52) = (   0.3000000  -0.5000000  -0.5000000), wk =   0.0120000
        k(   53) = (   0.4000000   0.4000000   0.4000000), wk =   0.0160000
        k(   54) = (   0.4000000   0.4000000  -0.5000000), wk =   0.0240000
        k(   55) = (   0.4000000  -0.5000000  -0.5000000), wk =   0.0120000
        k(   56) = (  -0.5000000  -0.5000000  -0.5000000), wk =   0.0020000

     Dense  grid:     2205 G-vectors     FFT dimensions: (  18,  18,  18)

     Estimated max dynamical RAM per process >       6.20 MB

     Estimated total dynamical RAM >      98.61 MB

     Check: negative core charge=   -0.000043

     Initial potential from superposition of free atoms

     starting charge      17.9985, renormalised to      18.0000
     Starting wfcs are   14 randomized atomic wfcs
     Checking if some PAW data can be deallocated... 

     total cpu time spent up to now is        0.4 secs

     Self-consistent Calculation

     iteration #  1     ecut=    70.00 Ry     beta= 0.20
     Davidson diagonalization with overlap
     ethr =  1.00E-02,  avg # of iterations =  3.0

     total cpu time spent up to now is        0.6 secs

     total energy              =    -218.59273016 Ry
     estimated scf accuracy    <       0.48513021 Ry

     iteration #  2     ecut=    70.00 Ry     beta= 0.20
     Davidson diagonalization with overlap
     ethr =  2.70E-03,  avg # of iterations =  1.0

     total cpu time spent up to now is        0.8 secs

     total energy              =    -218.46383661 Ry
     estimated scf accuracy    <       0.22788541 Ry

     iteration #  3     ecut=    70.00 Ry     beta= 0.20
     Davidson diagonalization with overlap
     ethr =  1.27E-03,  avg # of iterations =  2.9

     total cpu time spent up to now is        0.9 secs

     total energy              =    -218.49712198 Ry
     estimated scf accuracy    <       0.01349980 Ry

     iteration #  4     ecut=    70.00 Ry     beta= 0.20
     Davidson diagonalization with overlap
     ethr =  7.50E-05,  avg # of iterations =  3.1

     total cpu time spent up to now is        1.1 secs

     total energy              =    -218.50429245 Ry
     estimated scf accuracy    <       0.01185333 Ry

     iteration #  5     ecut=    70.00 Ry     beta= 0.20
     Davidson diagonalization with overlap
     ethr =  6.59E-05,  avg # of iterations =  1.0

     total cpu time spent up to now is        1.2 secs

     total energy              =    -218.50367128 Ry
     estimated scf accuracy    <       0.00218441 Ry

     iteration #  6     ecut=    70.00 Ry     beta= 0.20
     Davidson diagonalization with overlap
     ethr =  1.21E-05,  avg # of iterations =  3.1

     total cpu time spent up to now is        1.4 secs

     total energy              =    -218.50450613 Ry
     estimated scf accuracy    <       0.00031361 Ry

     iteration #  7     ecut=    70.00 Ry     beta= 0.20
     Davidson diagonalization with overlap
     ethr =  1.74E-06,  avg # of iterations =  1.2

     total cpu time spent up to now is        1.6 secs

     total energy              =    -218.50451312 Ry
     estimated scf accuracy    <       0.00005537 Ry

     iteration #  8     ecut=    70.00 Ry     beta= 0.20
     Davidson diagonalization with overlap
     ethr =  3.08E-07,  avg # of iterations =  2.1

     total cpu time spent up to now is        1.7 secs

     total energy              =    -218.50451622 Ry
     estimated scf accuracy    <       0.00000923 Ry

     iteration #  9     ecut=    70.00 Ry     beta= 0.20
     Davidson diagonalization with overlap
     ethr =  5.13E-08,  avg # of iterations =  1.7

     total cpu time spent up to now is        1.8 secs

     total energy              =    -218.50451748 Ry
     estimated scf accuracy    <       0.00000034 Ry

     iteration # 10     ecut=    70.00 Ry     beta= 0.20
     Davidson diagonalization with overlap
     ethr =  1.89E-09,  avg # of iterations =  2.7

     total cpu time spent up to now is        2.0 secs

     total energy              =    -218.50451768 Ry
     estimated scf accuracy    <          9.8E-09 Ry

     iteration # 11     ecut=    70.00 Ry     beta= 0.20
     Davidson diagonalization with overlap
     ethr =  5.45E-11,  avg # of iterations =  1.9

     total cpu time spent up to now is        2.2 secs

     total energy              =    -218.50451767 Ry
     estimated scf accuracy    <       0.00000001 Ry

     iteration # 12     ecut=    70.00 Ry     beta= 0.20
     Davidson diagonalization with overlap
     ethr =  5.45E-11,  avg # of iterations =  2.9

     total cpu time spent up to now is        2.3 secs

     total energy              =    -218.50451767 Ry
     estimated scf accuracy    <          7.2E-09 Ry

     iteration # 13     ecut=    70.00 Ry     beta= 0.20
     Davidson diagonalization with overlap
     ethr =  3.98E-11,  avg # of iterations =  1.7

     total cpu time spent up to now is        2.5 secs

     total energy              =    -218.50451767 Ry
     estimated scf accuracy    <          1.1E-10 Ry

     iteration # 14     ecut=    70.00 Ry     beta= 0.20
     Davidson diagonalization with overlap
     ethr =  6.19E-13,  avg # of iterations =  3.0

     total cpu time spent up to now is        2.6 secs

     total energy              =    -218.50451767 Ry
     estimated scf accuracy    <          7.9E-11 Ry

     iteration # 15     ecut=    70.00 Ry     beta= 0.20
     Davidson diagonalization with overlap
     ethr =  4.37E-13,  avg # of iterations =  1.0

     total cpu time spent up to now is        2.8 secs

     total energy              =    -218.50451767 Ry
     estimated scf accuracy    <          1.2E-10 Ry

     iteration # 16     ecut=    70.00 Ry     beta= 0.20
     Davidson diagonalization with overlap
     ethr =  4.37E-13,  avg # of iterations =  2.9

     total cpu time spent up to now is        2.9 secs

     total energy              =    -218.50451767 Ry
     estimated scf accuracy    <          2.0E-11 Ry

     iteration # 17     ecut=    70.00 Ry     beta= 0.20
     Davidson diagonalization with overlap
     ethr =  1.12E-13,  avg # of iterations =  1.0

     total cpu time spent up to now is        3.1 secs

     total energy              =    -218.50451767 Ry
     estimated scf accuracy    <          3.8E-12 Ry

     iteration # 18     ecut=    70.00 Ry     beta= 0.20
     Davidson diagonalization with overlap
     ethr =  1.00E-13,  avg # of iterations =  1.1

     total cpu time spent up to now is        3.2 secs

     End of self-consistent calculation

          k = 0.0000 0.0000 0.0000 (   257 PWs)   bands (ev):

    -1.6182  40.9066  40.9066  40.9066  55.0645  57.8719  57.8719  75.4935
    75.4935  75.4935  86.8033  86.8033  86.8033

          k = 0.0000 0.0000 0.1000 (   260 PWs)   bands (ev):

    -1.1302  37.0960  41.3307  41.3307  55.7987  58.2797  61.8750  73.5136
    73.5136  74.6528  87.0081  87.8440  87.8440

          k = 0.0000 0.0000 0.2000 (   272 PWs)   bands (ev):

     0.3071  30.4257  42.5777  42.5777  56.8454  59.4404  69.1654  69.1654
    69.6619  72.9547  87.5623  89.7846  89.7846

          k = 0.0000 0.0000 0.3000 (   280 PWs)   bands (ev):

     2.5914  23.9467  44.5394  44.5394  58.3826  61.1236  64.2725  64.2725
    69.0932  79.4640  88.2901  91.6249  91.6249

          k = 0.0000 0.0000 0.4000 (   272 PWs)   bands (ev):

     5.3848  18.5592  46.8473  46.8473  59.9827  59.9827  60.4041  62.7948
    66.1337  86.7494  88.9181  90.3531  92.9890

          k = 0.0000 0.0000-0.5000 (   288 PWs)   bands (ev):

     7.1200  15.9505  48.1585  48.1585  57.9778  57.9778  62.2221  63.5444
    63.9623  88.5494  89.1683  89.8218  93.5086

          k = 0.0000 0.1000 0.1000 (   267 PWs)   bands (ev):

    -0.6427  37.2097  37.8486  41.7511  56.7595  61.0976  63.1836  70.7019
    72.2846  74.9881  85.2692  88.4449  89.9794

          k = 0.0000 0.1000 0.2000 (   273 PWs)   bands (ev):

     0.7936  30.8400  38.8247  42.9853  57.8644  62.8030  65.9197  68.8773
    70.5001  73.8326  84.6989  89.7821  91.7529

          k = 0.0000 0.1000 0.3000 (   279 PWs)   bands (ev):

     3.0778  24.3746  40.8080  44.9202  59.0516  61.2045  64.4016  64.4510
    70.7787  79.6660  85.4549  91.1860  92.4519

          k = 0.0000 0.1000 0.4000 (   273 PWs)   bands (ev):

     5.8749  18.9874  43.1614  47.1774  56.1088  60.3812  61.7155  65.8531
    68.1139  86.7114  86.7497  91.6938  92.2129

          k = 0.0000 0.1000-0.5000 (   276 PWs)   bands (ev):

     7.6192  16.3716  44.5155  48.4409  54.0924  58.4682  63.0738  66.1001
    66.8332  87.4923  89.6398  90.8043  91.8390

          k = 0.0000 0.2000 0.2000 (   274 PWs)   bands (ev):

     2.2280  31.4448  32.8765  44.1767  58.5495  60.9807  67.5650  68.7788
    72.8521  74.2418  81.8667  89.9974  92.6045

          k = 0.0000 0.2000 0.3000 (   274 PWs)   bands (ev):

     4.5136  25.6159  34.2722  46.0222  54.5665  61.1293  64.7626  70.8136
    72.1406  80.7078  81.2445  90.6218  91.5015

          k = 0.0000 0.2000 0.4000 (   275 PWs)   bands (ev):

     7.3237  20.2456  36.6524  48.1156  49.9784  61.5145  63.0472  69.5309
    72.4074  82.4497  87.0065  89.2551  91.3478

          k = 0.0000 0.2000-0.5000 (   274 PWs)   bands (ev):

     9.0958  17.6086  38.0410  47.8180  49.2344  59.9154  64.3584  68.1314
    72.8274  83.6642  87.6825  89.5896  91.5650

          k = 0.0000 0.3000 0.3000 (   268 PWs)   bands (ev):

     6.8067  26.8340  28.6468  47.6862  48.8086  62.7949  64.4713  71.8288
    74.9204  78.4488  84.4449  88.5515  90.4174

          k = 0.0000 0.3000 0.4000 (   274 PWs)   bands (ev):

     9.6499  22.2109  30.2614  43.9825  49.4718  63.1286  64.8594  70.4892
    75.9745  78.3476  84.9262  89.2408  90.5538

          k = 0.0000 0.3000-0.5000 (   268 PWs)   bands (ev):

    11.4784  19.5468  31.6168  41.7666  50.3524  62.2234  66.2823  69.2403
    76.2090  79.5475  82.5565  90.4998  91.3862

          k = 0.0000 0.4000 0.4000 (   274 PWs)   bands (ev):

    12.5757  23.9783  25.3606  39.1006  50.8122  64.5645  67.0069  70.5052
    76.0935  76.1511  80.5449  89.8513  93.1103

          k = 0.0000 0.4000-0.5000 (   276 PWs)   bands (ev):

    14.5351  21.7892  26.0456  36.9189  51.4120  65.0537  68.5748  69.8202
    75.7717  76.4386  77.7407  89.6045  94.8870

          k = 0.0000-0.5000-0.5000 (   268 PWs)   bands (ev):

    16.7161  23.0172  23.0172  34.8049  51.8673  66.8239  70.0077  70.0077
    74.6674  75.2665  75.2665  89.2657  96.6064

          k = 0.1000 0.1000 0.1000 (   263 PWs)   bands (ev):

    -0.1556  37.6506  37.6506  38.5770  58.9404  63.5568  63.5568  68.9991
    72.4632  72.4632  86.8086  86.8086  91.3524

          k = 0.1000 0.1000 0.2000 (   272 PWs)   bands (ev):

     1.2796  31.2578  38.9466  39.5402  60.3014  64.6046  65.2653  67.4008
    70.9850  72.4876  85.1669  89.3297  92.2510

          k = 0.1000 0.1000 0.3000 (   276 PWs)   bands (ev):

     3.5635  24.8040  40.9864  41.4363  59.5519  61.9597  62.9725  66.1493
    71.2124  79.5460  84.9064  91.4492  91.8975

          k = 0.1000 0.1000 0.4000 (   272 PWs)   bands (ev):

     6.3639  19.4173  43.3850  43.6867  55.9115  57.3441  64.2803  67.6199
    69.5179  84.3442  87.7707  90.6326  92.6880

          k = 0.1000 0.1000-0.5000 (   276 PWs)   bands (ev):

     8.1161  16.7946  44.7444  44.9809  54.0200  55.2157  65.4403  68.2611
    68.2693  85.4252  89.6098  90.3585  92.6411

          k = 0.1000 0.2000 0.2000 (   279 PWs)   bands (ev):

     2.7125  31.9023  33.2442  40.4954  59.7051  63.2589  66.0170  69.8200
    69.9260  73.7577  84.8766  89.8727  91.9848

          k = 0.1000 0.2000 0.3000 (   273 PWs)   bands (ev):

     4.9970  26.0512  34.6786  42.4021  54.9043  61.7294  64.7613  69.5773
    71.9668  80.3192  84.2568  90.0000  91.6188

          k = 0.1000 0.2000 0.4000 (   274 PWs)   bands (ev):

     7.8093  20.6803  37.0585  44.6235  50.3825  57.9153  65.8229  70.0175
    72.9740  82.3791  87.1025  88.6513  92.7964

          k = 0.1000 0.2000-0.5000 (   274 PWs)   bands (ev):

     9.5871  18.0375  38.4411  45.8591  48.2485  56.0450  66.4080  70.1418
    73.3246  82.7739  86.0946  90.7217  93.2274

          k = 0.1000 0.3000 0.3000 (   278 PWs)   bands (ev):

     7.2873  27.3005  29.0414  44.2094  49.2086  61.6123  66.5170  66.9381
    75.9200  82.4061  85.1209  87.2630  91.7879

          k = 0.1000 0.3000 0.4000 (   275 PWs)   bands (ev):

    10.1299  22.6552  30.6894  44.4001  46.2453  59.6088  66.0766  68.7253
    76.3436  82.1389  84.5697  89.7713  92.1693

          k = 0.1000 0.3000-0.5000 (   274 PWs)   bands (ev):

    11.9618  19.9867  32.0503  42.1867  47.3188  58.2195  66.1560  69.9764
    75.7281  82.5401  83.0312  91.9292  92.2477

          k = 0.1000 0.4000 0.4000 (   276 PWs)   bands (ev):

    13.0499  24.4494  25.7875  39.5085  47.9709  61.0733  64.8465  68.2135
    76.7527  81.4754  82.8540  91.4974  93.2833

          k = 0.1000 0.4000-0.5000 (   278 PWs)   bands (ev):

    15.0059  22.2473  26.5020  37.3171  48.8107  61.1185  64.8892  67.8235
    76.5847  81.4143  81.9592  91.2222  95.0402

          k = 0.1000-0.5000-0.5000 (   284 PWs)   bands (ev):

    17.1736  23.4894  23.4894  35.1861  49.5026  64.0984  64.0984  64.9389
    77.4038  81.0086  81.0086  90.8003  96.7027

          k = 0.2000 0.2000 0.2000 (   275 PWs)   bands (ev):

     4.1424  33.2507  33.2507  35.1098  58.7510  63.5931  63.5931  67.3505
    74.5453  74.5453  88.9445  88.9445  90.2443

          k = 0.2000 0.2000 0.3000 (   276 PWs)   bands (ev):

     6.4240  27.3191  35.3845  36.4740  54.9728  57.4404  64.0569  68.8725
    75.7144  81.3076  87.5232  88.1390  92.0505

          k = 0.2000 0.2000 0.4000 (   279 PWs)   bands (ev):

     9.2443  21.9584  37.9235  38.6192  51.0501  52.3461  65.1276  69.8978
    76.8046  83.3786  85.9036  90.0858  94.0250

          k = 0.2000 0.2000-0.5000 (   278 PWs)   bands (ev):

    11.0425  19.2990  39.3907  39.8473  49.1773  50.0068  65.6272  70.3380
    77.2648  82.8046  85.2872  92.1597  94.7193

          k = 0.2000 0.3000 0.3000 (   282 PWs)   bands (ev):

     8.7076  28.6791  30.1778  37.9166  50.3399  57.0536  59.9038  69.3126
    79.4372  84.6209  86.2885  89.0513  93.0034

          k = 0.2000 0.3000 0.4000 (   279 PWs)   bands (ev):

    11.5496  23.9630  31.9439  40.1613  45.6339  53.6553  60.7896  68.2560
    80.4173  85.6207  86.8442  91.2546  94.3362

          k = 0.2000 0.3000-0.5000 (   274 PWs)   bands (ev):

    13.3920  21.2832  33.3231  41.4305  43.4320  51.6996  61.8924  67.3036
    80.7297  85.8881  86.1878  93.2519  94.8274

          k = 0.2000 0.4000 0.4000 (   273 PWs)   bands (ev):

    14.4526  25.8429  27.0431  40.7093  42.2963  55.4153  57.4163  65.2669
    81.8960  87.1557  87.8871  93.7864  94.2757

          k = 0.2000 0.4000-0.5000 (   278 PWs)   bands (ev):

    16.3992  23.5993  27.8498  38.4919  43.4363  54.4378  58.2124  63.3187
    82.5615  87.3544  87.9148  94.1974  95.4633

          k = 0.2000-0.5000-0.5000 (   276 PWs)   bands (ev):

    18.5270  24.8875  24.8875  36.3106  44.4780  56.5511  56.5511  60.7099
    83.4198  87.8957  87.8957  93.7926  96.9606

          k = 0.3000 0.3000 0.3000 (   281 PWs)   bands (ev):

    10.9850  30.8732  30.8732  32.7652  50.9716  53.3019  53.3019  67.6880
    85.5985  85.5985  86.6880  93.0237  93.0237

          k = 0.3000 0.3000 0.4000 (   275 PWs)   bands (ev):

    13.8318  26.0241  33.5189  34.4070  47.3577  47.9076  55.0041  64.5870
    86.3705  87.7464  90.0308  93.2252  95.4403

          k = 0.3000 0.3000-0.5000 (   276 PWs)   bands (ev):

    15.6986  23.3306  35.0860  35.5903  45.4093  45.4657  56.4423  62.7471
    86.6786  88.8728  89.7578  94.6186  96.2392

          k = 0.3000 0.4000 0.4000 (   281 PWs)   bands (ev):

    16.7085  28.0692  29.0139  36.3509  42.6532  49.7312  50.5918  60.5370
    88.6181  90.9875  92.4449  94.7569  96.0856

          k = 0.3000 0.4000-0.5000 (   286 PWs)   bands (ev):

    18.6419  25.7491  29.9935  37.6984  40.3645  47.9691  51.7826  58.3474
    89.2864  92.2947  92.4493  96.0687  96.4514

          k = 0.3000-0.5000-0.5000 (   292 PWs)   bands (ev):

    20.7015  27.1238  27.1238  38.0887  39.0208  49.6597  49.6597  55.9941
    90.0559  93.3458  93.3458  96.2379  97.2864

          k = 0.4000 0.4000 0.4000 (   289 PWs)   bands (ev):

    19.5590  30.7784  30.7784  31.7243  45.0070  45.0397  45.0397  56.1877
    93.7101  94.0835  94.0835  96.6148  96.6148

          k = 0.4000 0.4000-0.5000 (   286 PWs)   bands (ev):

    21.4900  28.3338  32.4119  32.7749  42.4465  42.8697  46.5098  54.0147
    94.3994  95.2828  95.5065  96.8344  97.4924

          k = 0.4000-0.5000-0.5000 (   284 PWs)   bands (ev):

    23.4576  29.8540  29.8540  34.1398  40.2059  44.0590  44.0590  51.9157
    95.4682  96.7975  96.7975  97.5567  97.5787

          k =-0.5000-0.5000-0.5000 (   280 PWs)   bands (ev):

    25.3597  31.5108  31.5108  31.5108  41.4341  41.4341  41.4341  50.0072
    97.6613  97.6613  97.9819  97.9819  97.9819

     the Fermi energy is    79.6672 ev

!    total energy              =    -218.50451767 Ry
     total all-electron energy =     -1851.274318 Ry
     estimated scf accuracy    <          6.2E-13 Ry
     smearing contrib. (-TS)   =      -0.00019488 Ry
     internal energy E=F+TS    =    -218.50432280 Ry

     The total energy is F=E-TS. E is the sum of the following terms:
     one-electron contribution =      89.32745682 Ry
     hartree contribution      =       5.33937517 Ry
     xc contribution           =     -31.61859849 Ry
     ewald contribution        =    -206.45681791 Ry
     one-center paw contrib.   =     -75.09573839 Ry

     convergence has been achieved in  18 iterations

     Forces acting on atoms (cartesian axes, Ry/au):

     atom    1 type  1   force =     0.00000000    0.00000000    0.00000000
     atom    2 type  2   force =     0.00000000    0.00000000    0.00000000
     The non-local contrib.  to forces
     atom    1 type  1   force =     0.00000000    0.00000000    0.00000000
     atom    2 type  2   force =     0.00000000    0.00000000    0.00000000
     The ionic contribution  to forces
     atom    1 type  1   force =     0.00000000    0.00000000   -0.00000000
     atom    2 type  2   force =    -0.00000000   -0.00000000    0.00000000
     The local contribution  to forces
     atom    1 type  1   force =     0.00000000    0.00000000   -0.00000000
     atom    2 type  2   force =    -0.00000000   -0.00000000    0.00000000
     The core correction contribution to forces
     atom    1 type  1   force =    -0.00000000    0.00000000    0.00000000
     atom    2 type  2   force =     0.00000000    0.00000000   -0.00000000
     The Hubbard contrib.    to forces
     atom    1 type  1   force =     0.00000000    0.00000000    0.00000000
     atom    2 type  2   force =     0.00000000    0.00000000    0.00000000
     The SCF correction term to forces
     atom    1 type  1   force =    -0.00000000   -0.00000000   -0.00000000
     atom    2 type  2   force =    -0.00000000   -0.00000000    0.00000000

     Total force =     0.000000     Total SCF correction =     0.000000


     Computing stress (Cartesian axis) and pressure

          total   stress  (Ry/bohr**3)                   (kbar)     P=    77104.18
   0.52414356   0.00000000   0.00000000        77104.18        0.00        0.00
   0.00000000   0.52414356   0.00000000            0.00    77104.18        0.00
   0.00000000   0.00000000   0.52414356            0.00        0.00    77104.18


     BFGS Geometry Optimization
     Energy error            =      0.0E+00 Ry
     Gradient error          =      0.0E+00 Ry/Bohr
     Cell gradient error     =      7.7E+04 kbar

     number of scf cycles    =   1
     number of bfgs steps    =   0

     enthalpy           new  =    -218.5045176748 Ry

     new trust radius        =       0.5000000000 bohr
ibrav =      1
 celldm(1) =      4.46853453
Input lattice vectors:
     1.47328446     0.00000000     0.00000000
     0.00000000     1.47328446     0.00000000
     0.00000000     0.00000000     1.47328446
New lattice vectors in INITIAL alat:
     1.47328446     0.00000000     0.00000000
     0.00000000     1.47328446     0.00000000
     0.00000000     0.00000000     1.47328446
New lattice vectors in NEW alat (for information only):
     1.00000000     0.00000000     0.00000000
     0.00000000     1.00000000     0.00000000
     0.00000000     0.00000000     1.00000000
Discrepancy in bohr =     0.000000    0.000000    0.000000
     new conv_thr            =            1.0E-12 Ry

     new unit-cell volume =     89.22681 a.u.^3 (    13.22205 Ang^3 )
     density =      8.02084 g/cm^3

CELL_PARAMETERS (alat=  3.03304261)
   1.473284455   0.000000000   0.000000000
   0.000000000   1.473284455   0.000000000
   0.000000000   0.000000000   1.473284455

ATOMIC_POSITIONS (crystal)
Ti            0.0000000000        0.0000000000        0.0000000000
O             0.5000000000        0.5000000000        0.5000000000



     Writing config-only to output data dir ./tmp/TiO.save/
     NEW-OLD atomic charge density approx. for the potential

     Check: negative core charge=   -0.000260
     extrapolated charge   30.37022, renormalised to   18.00000

     total cpu time spent up to now is        3.4 secs

     Self-consistent Calculation

     iteration #  1     ecut=    70.00 Ry     beta= 0.20
     Davidson diagonalization with overlap
     ethr =  1.00E-06,  avg # of iterations =  6.3

     total cpu time spent up to now is        3.7 secs

     total energy              =    -223.27303330 Ry
     estimated scf accuracy    <       0.11102420 Ry

     iteration #  2     ecut=    70.00 Ry     beta= 0.20
     Davidson diagonalization with overlap
     ethr =  6.17E-04,  avg # of iterations =  3.7

     total cpu time spent up to now is        4.0 secs

     total energy              =    -227.28290160 Ry
     estimated scf accuracy    <       4.54778251 Ry

     iteration #  3     ecut=    70.00 Ry     beta= 0.20
     Davidson diagonalization with overlap
     ethr =  6.17E-04,  avg # of iterations =  1.0

     total cpu time spent up to now is        4.1 secs

     total energy              =    -227.67985413 Ry
     estimated scf accuracy    <       4.33555113 Ry

     iteration #  4     ecut=    70.00 Ry     beta= 0.20
     Davidson diagonalization with overlap
     ethr =  6.17E-04,  avg # of iterations =  1.8

     total cpu time spent up to now is        4.3 secs

     total energy              =    -224.54827983 Ry
     estimated scf accuracy    <       5.17113258 Ry

     iteration #  5     ecut=    70.00 Ry     beta= 0.20
     Davidson diagonalization with overlap
     ethr =  6.17E-04,  avg # of iterations =  3.0

     total cpu time spent up to now is        4.5 secs

     WARNING: integrated charge=    18.00047070, expected=    18.00000000

     total energy              =    -225.20526487 Ry
     estimated scf accuracy    <       0.29759593 Ry

     iteration #  6     ecut=    70.00 Ry     beta= 0.20
     Davidson diagonalization with overlap
     ethr =  6.17E-04,  avg # of iterations =  2.0

     total cpu time spent up to now is        4.6 secs

     WARNING: integrated charge=    18.00034775, expected=    18.00000000

     total energy              =    -225.24517305 Ry
     estimated scf accuracy    <       0.09883382 Ry

     iteration #  7     ecut=    70.00 Ry     beta= 0.20
     Davidson diagonalization with overlap
     ethr =  5.49E-04,  avg # of iterations =  1.5

     total cpu time spent up to now is        4.8 secs

     WARNING: integrated charge=    17.99992034, expected=    18.00000000

     total energy              =    -225.25591519 Ry
     estimated scf accuracy    <       0.00831555 Ry

     iteration #  8     ecut=    70.00 Ry     beta= 0.20
     Davidson diagonalization with overlap
     ethr =  4.62E-05,  avg # of iterations =  3.0

     total cpu time spent up to now is        4.9 secs

     WARNING: integrated charge=    18.00067410, expected=    18.00000000

     total energy              =    -225.24218986 Ry
     estimated scf accuracy    <       0.08491081 Ry

     iteration #  9     ecut=    70.00 Ry     beta= 0.20
     Davidson diagonalization with overlap
     ethr =  4.62E-05,  avg # of iterations =  3.0

     total cpu time spent up to now is        5.1 secs

     WARNING: integrated charge=    18.00054055, expected=    18.00000000

     total energy              =    -225.25255072 Ry
     estimated scf accuracy    <       0.00858013 Ry

     iteration # 10     ecut=    70.00 Ry     beta= 0.20
     Davidson diagonalization with overlap
     ethr =  4.62E-05,  avg # of iterations =  2.0

     total cpu time spent up to now is        5.3 secs

     WARNING: integrated charge=    18.00060203, expected=    18.00000000

     total energy              =    -225.25348905 Ry
     estimated scf accuracy    <       0.00047616 Ry

     iteration # 11     ecut=    70.00 Ry     beta= 0.20
     Davidson diagonalization with overlap
     ethr =  2.65E-06,  avg # of iterations =  2.2

     total cpu time spent up to now is        5.4 secs

     WARNING: integrated charge=    18.00063035, expected=    18.00000000

     total energy              =    -225.25355512 Ry
     estimated scf accuracy    <       0.00013941 Ry

     iteration # 12     ecut=    70.00 Ry     beta= 0.20
     Davidson diagonalization with overlap
     ethr =  7.74E-07,  avg # of iterations =  1.0

     total cpu time spent up to now is        5.6 secs

     WARNING: integrated charge=    18.00029511, expected=    18.00000000

     total energy              =    -225.25348846 Ry
     estimated scf accuracy    <       0.00017386 Ry

     iteration # 13     ecut=    70.00 Ry     beta= 0.20
     Davidson diagonalization with overlap
     ethr =  7.74E-07,  avg # of iterations =  2.9

     total cpu time spent up to now is        5.7 secs

     WARNING: integrated charge=    18.00071225, expected=    18.00000000

     total energy              =    -225.25351221 Ry
     estimated scf accuracy    <       0.00003921 Ry

     iteration # 14     ecut=    70.00 Ry     beta= 0.20
     Davidson diagonalization with overlap
     ethr =  2.18E-07,  avg # of iterations =  2.9

     total cpu time spent up to now is        5.9 secs

     WARNING: integrated charge=    18.00218712, expected=    18.00000000

     total energy              =    -225.25362557 Ry
     estimated scf accuracy    <       0.00005794 Ry

     iteration # 15     ecut=    70.00 Ry     beta= 0.20
     Davidson diagonalization with overlap
     ethr =  2.18E-07,  avg # of iterations =  3.0

     total cpu time spent up to now is        6.1 secs

     WARNING: integrated charge=    17.99981537, expected=    18.00000000

     total energy              =    -225.25340847 Ry
     estimated scf accuracy    <       0.00059774 Ry

     iteration # 16     ecut=    70.00 Ry     beta= 0.20
     Davidson diagonalization with overlap
     ethr =  2.18E-07,  avg # of iterations =  3.0

     total cpu time spent up to now is        6.3 secs

     WARNING: integrated charge=    18.00020416, expected=    18.00000000

     total energy              =    -225.25351463 Ry
     estimated scf accuracy    <       0.00000330 Ry

     iteration # 17     ecut=    70.00 Ry     beta= 0.20
     Davidson diagonalization with overlap
     ethr =  1.83E-08,  avg # of iterations =  3.0

     total cpu time spent up to now is        6.5 secs

     WARNING: integrated charge=    17.99995466, expected=    18.00000000

     total energy              =    -225.25351448 Ry
     estimated scf accuracy    <       0.00000807 Ry

     iteration # 18     ecut=    70.00 Ry     beta= 0.20
     Davidson diagonalization with overlap
     ethr =  1.83E-08,  avg # of iterations =  3.0

     total cpu time spent up to now is        6.6 secs

     WARNING: integrated charge=    18.00000389, expected=    18.00000000

     total energy              =    -225.25351600 Ry
     estimated scf accuracy    <       0.00000009 Ry

     iteration # 19     ecut=    70.00 Ry     beta= 0.20
     Davidson diagonalization with overlap
     ethr =  5.18E-10,  avg # of iterations =  2.9

     total cpu time spent up to now is        6.8 secs

     WARNING: integrated charge=    17.99999746, expected=    18.00000000

     total energy              =    -225.25351602 Ry
     estimated scf accuracy    <          6.6E-09 Ry

     iteration # 20     ecut=    70.00 Ry     beta= 0.20
     Davidson diagonalization with overlap
     ethr =  3.67E-11,  avg # of iterations =  1.8

     total cpu time spent up to now is        6.9 secs

     total energy              =    -225.25351602 Ry
     estimated scf accuracy    <          6.7E-11 Ry

     iteration # 21     ecut=    70.00 Ry     beta= 0.20
     Davidson diagonalization with overlap
     ethr =  3.72E-13,  avg # of iterations =  3.1

     total cpu time spent up to now is        7.1 secs

     total energy              =    -225.25351602 Ry
     estimated scf accuracy    <          4.3E-11 Ry

     iteration # 22     ecut=    70.00 Ry     beta= 0.20
     Davidson diagonalization with overlap
     ethr =  2.39E-13,  avg # of iterations =  3.0

     total cpu time spent up to now is        7.3 secs

     total energy              =    -225.25351602 Ry
     estimated scf accuracy    <          1.2E-11 Ry

     iteration # 23     ecut=    70.00 Ry     beta= 0.20
     Davidson diagonalization with overlap
     ethr =  1.00E-13,  avg # of iterations =  1.0

     total cpu time spent up to now is        7.4 secs

     total energy              =    -225.25351602 Ry
     estimated scf accuracy    <          2.9E-12 Ry

     iteration # 24     ecut=    70.00 Ry     beta= 0.20
     Davidson diagonalization with overlap
     ethr =  1.00E-13,  avg # of iterations =  2.9

     total cpu time spent up to now is        7.6 secs

     total energy              =    -225.25351602 Ry
     estimated scf accuracy    <          1.6E-11 Ry

     iteration # 25     ecut=    70.00 Ry     beta= 0.20
     Davidson diagonalization with overlap
     ethr =  1.00E-13,  avg # of iterations =  1.0

     total cpu time spent up to now is        7.7 secs

     total energy              =    -225.25351602 Ry
     estimated scf accuracy    <          2.3E-12 Ry

     iteration # 26     ecut=    70.00 Ry     beta= 0.20
     Davidson diagonalization with overlap
     ethr =  1.00E-13,  avg # of iterations =  1.0

     total cpu time spent up to now is        7.8 secs

     total energy              =    -225.25351602 Ry
     estimated scf accuracy    <          1.2E-12 Ry

     iteration # 27     ecut=    70.00 Ry     beta= 0.20
     Davidson diagonalization with overlap
     ethr =  1.00E-13,  avg # of iterations =  1.0

     total cpu time spent up to now is        8.0 secs

     total energy              =    -225.25351603 Ry
     estimated scf accuracy    <          1.3E-12 Ry

     iteration # 28     ecut=    70.00 Ry     beta= 0.20
     Davidson diagonalization with overlap
     ethr =  1.00E-13,  avg # of iterations =  1.0

     total cpu time spent up to now is        8.1 secs

     End of self-consistent calculation

          k = 0.0000 0.0000 0.0000 (   257 PWs)   bands (ev):

   -32.0631  -7.1331  -7.1331  -7.1331   1.2648  20.5742  20.5742  20.5742
    21.7243  21.7243  30.1112  30.1112  33.2025

          k = 0.0000 0.0000 0.0679 (   260 PWs)   bands (ev):

   -32.0209  -7.4634  -7.1060  -7.1060   1.5490  19.3312  20.4160  20.4160
    21.8512  22.8786  30.1806  30.1806  33.6819

          k = 0.0000 0.0000 0.1358 (   272 PWs)   bands (ev):

   -31.9094  -8.2497  -7.0386  -7.0386   2.2574  17.5321  19.9788  19.9788
    22.1915  24.7878  30.2151  30.2151  34.8050

          k = 0.0000 0.0000 0.2036 (   280 PWs)   bands (ev):

   -31.7678  -9.1172  -6.9502  -6.9502   3.1201  15.7605  19.4512  19.4512
    22.6509  26.9110  30.4524  30.4524  36.0926

          k = 0.0000 0.0000 0.2715 (   272 PWs)   bands (ev):

   -31.6467  -9.7555  -6.8764  -6.8764   3.8611  14.4758  19.0670  19.0670
    23.0833  28.9364  30.8691  30.8691  37.3605

          k = 0.0000 0.0000-0.3394 (   288 PWs)   bands (ev):

   -31.6030  -9.9923  -6.8511  -6.8511   4.1663  13.9284  18.8840  18.8840
    23.1687  29.6675  30.7691  30.7691  38.0517

          k = 0.0000 0.0679 0.0679 (   267 PWs)   bands (ev):

   -31.9798  -7.5131  -7.3427  -7.0820   1.8002  19.1942  19.4332  20.2808
    22.4410  23.3695  29.8004  30.0244  30.3979

          k = 0.0000 0.0679 0.1358 (   273 PWs)   bands (ev):

   -31.8690  -8.2150  -7.3165  -7.0131   2.4244  17.5339  19.2419  19.9669
    22.7875  24.9823  29.5964  29.9392  30.6622

          k = 0.0000 0.0679 0.2036 (   279 PWs)   bands (ev):

   -31.7280  -9.0571  -7.2107  -6.9272   3.1753  15.8817  19.0062  19.5251
    23.0979  27.0375  29.6042  30.0540  30.7545

          k = 0.0000 0.0679 0.2715 (   273 PWs)   bands (ev):

   -31.6085  -9.6833  -7.1192  -6.8554   3.8055  14.6913  18.7957  19.1983
    23.4135  28.9655  29.8716  30.2963  30.7812

          k = 0.0000 0.0679-0.3394 (   276 PWs)   bands (ev):

   -31.5631  -9.9137  -7.0847  -6.8294   4.0594  14.2300  18.6725  19.0384
    23.5041  29.7082  30.4220  30.6293  38.6826

          k = 0.0000 0.1358 0.1358 (   274 PWs)   bands (ev):

   -31.7603  -8.2467  -7.8662  -6.9478   2.8286  17.1713  18.3536  19.8931
    23.5777  25.8767  29.0604  29.4916  30.8255

          k = 0.0000 0.1358 0.2036 (   274 PWs)   bands (ev):

   -31.6220  -8.9007  -7.8507  -6.8661   3.2835  16.1304  18.1652  19.7550
    23.9376  27.5160  28.8045  29.2686  30.6792

          k = 0.0000 0.1358 0.2715 (   275 PWs)   bands (ev):

   -31.5075  -9.4884  -7.7304  -6.7993   3.6308  15.2607  18.1144  19.5732
    24.0632  28.9641  29.1554  29.2366  30.1887

          k = 0.0000 0.1358-0.3394 (   274 PWs)   bands (ev):

   -31.4624  -9.7058  -7.6803  -6.7756   3.7607  14.9702  18.0944  19.4698
    24.0759  29.2235  29.3202  29.8115  29.8283

          k = 0.0000 0.2036 0.2036 (   268 PWs)   bands (ev):

   -31.4878  -8.8105  -8.4701  -6.7906   3.3536  16.1738  17.6649  19.9843
    24.4229  28.2464  28.6405  28.6788  30.1193

          k = 0.0000 0.2036 0.2715 (   274 PWs)   bands (ev):

   -31.3787  -9.2343  -8.4362  -6.7305   3.3612  15.9793  17.5223  20.0955
    24.4349  28.0576  28.2166  29.2945  29.9063

          k = 0.0000 0.2036-0.3394 (   268 PWs)   bands (ev):

   -31.3346  -9.4334  -8.3739  -6.7044   3.3539  15.8918  17.5230  20.2126
    24.4357  28.0750  28.3197  28.8266  30.5596

          k = 0.0000 0.2715 0.2715 (   274 PWs)   bands (ev):

   -31.2719  -9.0582  -8.9337  -6.6735   3.1030  16.5475  17.1989  20.5883
    24.3314  27.4964  27.5248  28.3303  30.9714

          k = 0.0000 0.2715-0.3394 (   276 PWs)   bands (ev):

   -31.2309  -9.1981  -8.9083  -6.6516   2.9936  16.7181  17.1524  20.8133
    24.1902  27.1656  27.5189  27.7651  31.5479

          k = 0.0000-0.3394-0.3394 (   268 PWs)   bands (ev):

   -31.1883  -9.1026  -9.1026  -6.6293   2.8500  17.0833  17.0833  21.1463
    23.9896  26.9066  27.3672  27.3672  32.1670

          k = 0.0679 0.0679 0.0679 (   263 PWs)   bands (ev):

   -31.9374  -7.5492  -7.3121  -7.3121   2.0221  19.2466  19.3835  19.3835
    23.3594  23.3594  29.9220  29.9220  30.4120

          k = 0.0679 0.0679 0.1358 (   272 PWs)   bands (ev):

   -31.8281  -8.1792  -7.3318  -7.2376   2.5718  17.6135  19.1008  19.4102
    23.3673  25.0823  29.4351  30.0796  30.4417

          k = 0.0679 0.0679 0.2036 (   276 PWs)   bands (ev):

   -31.6883  -8.9981  -7.2234  -7.1423   3.2260  16.0360  18.7118  19.4310
    23.5156  27.0683  29.1846  30.3822  30.3934

          k = 0.0679 0.0679 0.2715 (   272 PWs)   bands (ev):

   -31.5704  -9.6126  -7.1281  -7.0621   3.7650  14.9048  18.3823  19.3864
    23.7292  28.7912  29.3875  30.1599  30.8469

          k = 0.0679 0.0679-0.3394 (   276 PWs)   bands (ev):

   -31.5257  -9.8391  -7.0931  -7.0325   3.9784  14.4792  18.2249  19.3063
    23.7903  29.2640  29.5248  30.1915  30.9567

          k = 0.0679 0.1358 0.1358 (   279 PWs)   bands (ev):

   -31.7215  -8.2093  -7.8328  -7.2004   2.9278  17.3830  18.1905  19.2430
    24.1188  25.6949  29.2796  29.5811  30.4452

          k = 0.0679 0.1358 0.2036 (   273 PWs)   bands (ev):

   -31.5835  -8.8455  -7.8182  -7.1053   3.3283  16.3012  17.9213  19.3865
    24.3501  27.2663  28.9075  29.5617  30.5363

          k = 0.0679 0.1358 0.2715 (   274 PWs)   bands (ev):

   -31.4701  -9.4232  -7.7010  -7.0270   3.6330  15.4083  17.6850  19.5705
    24.4220  28.2015  28.8255  29.8045  30.5686

          k = 0.0679 0.1358-0.3394 (   274 PWs)   bands (ev):

   -31.4260  -9.6381  -7.6530  -6.9967   3.7466  15.0921  17.5728  19.6510
    24.4624  28.4097  28.6410  30.2217  30.6114

          k = 0.0679 0.2036 0.2036 (   278 PWs)   bands (ev):

   -31.4527  -8.7591  -8.4322  -7.0206   3.4014  16.2462  17.3672  19.4475
    24.8119  27.7905  28.5018  29.2004  30.1697

          k = 0.0679 0.2036 0.2715 (   275 PWs)   bands (ev):

   -31.3429  -9.1770  -8.3970  -6.9490   3.4203  15.9616  17.1336  19.7172
    24.8480  27.7797  28.1579  29.8787  30.1293

          k = 0.0679 0.2036-0.3394 (   274 PWs)   bands (ev):

   -31.3001  -9.3744  -8.3371  -6.9208   3.4183  15.8415  17.0276  19.8628
    24.8119  27.5413  28.1537  29.8631  30.6535

          k = 0.0679 0.2715 0.2715 (   276 PWs)   bands (ev):

   -31.2372  -9.0075  -8.8892  -6.8837   3.2085  16.3125  16.8516  19.8859
    24.7650  27.4324  27.8809  29.1045  31.0572

          k = 0.0679 0.2715-0.3394 (   278 PWs)   bands (ev):

   -31.1964  -9.1488  -8.8620  -6.8585   3.1187  16.4197  16.7481  19.9616
    24.6469  27.2946  27.8831  28.6889  31.5564

          k = 0.0679-0.3394-0.3394 (   284 PWs)   bands (ev):

   -31.1572  -9.0591  -9.0591  -6.8355   2.9947  16.6518  16.6518  19.9575
    24.5058  27.6831  27.6831  27.7344  32.0276

          k = 0.1358 0.1358 0.1358 (   275 PWs)   bands (ev):

   -31.6156  -8.1874  -7.7414  -7.7414   3.1661  17.7946  17.7946  18.0949
    25.4823  25.4823  29.6598  29.8416  29.8416

          k = 0.1358 0.1358 0.2036 (   276 PWs)   bands (ev):

   -31.4825  -8.7048  -7.8060  -7.6255   3.4282  16.5980  17.2751  18.6967
    25.3678  27.0234  28.7252  29.7903  30.4946

          k = 0.1358 0.1358 0.2715 (   279 PWs)   bands (ev):

   -31.3725  -9.2499  -7.6911  -7.5314   3.6222  15.6854  16.8520  19.3010
    25.3735  27.7458  28.0847  30.1279  30.8372

          k = 0.1358 0.1358-0.3394 (   278 PWs)   bands (ev):

   -31.3295  -9.4559  -7.6416  -7.4943   3.6926  15.3606  16.6991  19.5412
    25.4132  27.6710  27.9133  30.5649  31.0445

          k = 0.1358 0.2036 0.2036 (   282 PWs)   bands (ev):

   -31.3552  -8.6223  -8.3250  -7.5884   3.5211  16.2908  16.7156  18.5120
    26.0182  27.5870  28.1068  29.9300  30.4785

          k = 0.1358 0.2036 0.2715 (   279 PWs)   bands (ev):

   -31.2479  -9.0261  -8.2945  -7.4939   3.5730  15.7858  16.2487  18.8170
    26.1082  27.7184  28.1024  30.4775  30.7092

          k = 0.1358 0.2036-0.3394 (   274 PWs)   bands (ev):

   -31.2056  -9.2172  -8.2375  -7.4555   3.5878  15.6089  16.0437  19.0002
    26.1258  27.6392  28.0788  30.8615  30.9671

          k = 0.1358 0.2715 0.2715 (   273 PWs)   bands (ev):

   -31.1434  -8.8722  -8.7687  -7.4082   3.5017  15.6552  16.0143  18.4419
    26.2087  27.9169  28.6919  30.3209  31.2255

          k = 0.1358 0.2715-0.3394 (   278 PWs)   bands (ev):

   -31.1044  -9.0153  -8.7446  -7.3757   3.4658  15.7132  15.7749  18.2823
    26.1894  28.1202  28.6341  30.0201  31.6504

          k = 0.1358-0.3394-0.3394 (   276 PWs)   bands (ev):

   -31.0645  -8.9343  -8.9343  -7.3425   3.4105  15.7405  15.7405  17.9449
    26.2029  28.8097  28.8097  29.3540  41.5220

          k = 0.2036 0.2036 0.2036 (   281 PWs)   bands (ev):

   -31.2304  -8.5057  -8.1883  -8.1883   3.6577  15.9527  15.9527  17.9261
    27.6459  27.6459  27.8010  30.6347  30.6347

          k = 0.2036 0.2036 0.2715 (   275 PWs)   bands (ev):

   -31.1261  -8.8323  -8.2185  -8.0743   3.7580  15.3750  15.4479  17.7792
    27.7790  27.9759  28.6440  30.8948  31.1086

          k = 0.2036 0.2036-0.3394 (   276 PWs)   bands (ev):

   -31.0865  -9.0148  -8.1665  -8.0313   3.7932  15.1435  15.2319  17.7183
    27.8103  28.3611  28.4405  31.2111  31.2844

          k = 0.2036 0.2715 0.2715 (   281 PWs)   bands (ev):

   -31.0273  -8.7023  -8.6182  -8.0295   3.8996  14.8642  15.0548  16.8135
    28.2475  28.7747  29.4801  31.0945  31.3246

          k = 0.2036 0.2715-0.3394 (   286 PWs)   bands (ev):

   -30.9896  -8.8444  -8.5966  -7.9896   3.9508  14.7357  14.8731  16.4249
    28.3639  29.1545  29.5255  31.0921  31.6959

          k = 0.2036-0.3394-0.3394 (   292 PWs)   bands (ev):

   -30.9526  -8.7780  -8.7780  -7.9520   4.0086  14.7237  14.7237  15.8236
    28.4621  29.8963  29.8963  30.4647  40.6375

          k = 0.2715 0.2715 0.2715 (   289 PWs)   bands (ev):

   -30.9318  -8.5816  -8.4918  -8.4918   4.2572  14.3443  14.3443  15.5157
    29.4895  30.1913  30.1913  31.4307  31.4307

          k = 0.2715 0.2715-0.3394 (   286 PWs)   bands (ev):

   -30.8935  -8.7012  -8.4948  -8.4413   4.4050  14.0915  14.2290  14.9769
    30.2685  30.4118  30.5247  31.5940  31.8241

          k = 0.2715-0.3394-0.3394 (   284 PWs)   bands (ev):

   -30.8560  -8.6444  -8.6444  -8.4198   4.5978  13.9973  13.9973  14.3033
    30.9402  31.1145  31.1145  31.3576  39.2305

          k =-0.3394-0.3394-0.3394 (   280 PWs)   bands (ev):

   -30.8184  -8.5929  -8.5929  -8.5929   4.8604  13.7289  13.7289  13.7289
    31.6783  31.6783  31.6783  38.6521  38.6521

     the Fermi energy is    26.6216 ev

!    total energy              =    -225.25351603 Ry
     total all-electron energy =     -1858.023316 Ry
     estimated scf accuracy    <          5.6E-13 Ry
     smearing contrib. (-TS)   =       0.00037178 Ry
     internal energy E=F+TS    =    -225.25388781 Ry

     The total energy is F=E-TS. E is the sum of the following terms:
     one-electron contribution =      -2.06489252 Ry
     hartree contribution      =      18.70295412 Ry
     xc contribution           =     -26.86722172 Ry
     ewald contribution        =    -140.13438562 Ry
     one-center paw contrib.   =     -74.89034207 Ry

     convergence has been achieved in  28 iterations

     Forces acting on atoms (cartesian axes, Ry/au):

     atom    1 type  1   force =     0.00000000    0.00000000    0.00000000
     atom    2 type  2   force =     0.00000000    0.00000000    0.00000000
     The non-local contrib.  to forces
     atom    1 type  1   force =     0.00000000    0.00000000    0.00000000
     atom    2 type  2   force =     0.00000000    0.00000000    0.00000000
     The ionic contribution  to forces
     atom    1 type  1   force =    -0.00000000   -0.00000000   -0.00000000
     atom    2 type  2   force =     0.00000000   -0.00000000    0.00000000
     The local contribution  to forces
     atom    1 type  1   force =     0.00000000   -0.00000000    0.00000000
     atom    2 type  2   force =     0.00000000    0.00000000    0.00000000
     The core correction contribution to forces
     atom    1 type  1   force =     0.00000000    0.00000000    0.00000000
     atom    2 type  2   force =     0.00000000    0.00000000    0.00000000
     The Hubbard contrib.    to forces
     atom    1 type  1   force =     0.00000000    0.00000000    0.00000000
     atom    2 type  2   force =     0.00000000    0.00000000    0.00000000
     The SCF correction term to forces
     atom    1 type  1   force =    -0.00000000    0.00000000   -0.00000000
     atom    2 type  2   force =     0.00000000   -0.00000000    0.00000000

     Total force =     0.000000     Total SCF correction =     0.000000


     Computing stress (Cartesian axis) and pressure

          total   stress  (Ry/bohr**3)                   (kbar)     P=      491.79
   0.00334310   0.00000000   0.00000000          491.79        0.00        0.00
   0.00000000   0.00334310   0.00000000            0.00      491.79        0.00
   0.00000000   0.00000000   0.00334310            0.00        0.00      491.79

     Energy error            =      6.7E+00 Ry
     Gradient error          =      0.0E+00 Ry/Bohr
     Cell gradient error     =      4.9E+02 kbar

     number of scf cycles    =   2
     number of bfgs steps    =   1

     enthalpy           old  =    -218.5045176748 Ry
     enthalpy           new  =    -225.2535160250 Ry

     CASE: enthalpy          _new < enthalpy          _old

     new trust radius        =       0.0085200065 bohr
ibrav =      1
 celldm(1) =      4.48868696
Input lattice vectors:
     1.47992875     0.00000000     0.00000000
     0.00000000     1.47992875     0.00000000
     0.00000000     0.00000000     1.47992875
New lattice vectors in INITIAL alat:
     1.47992875     0.00000000     0.00000000
     0.00000000     1.47992875     0.00000000
     0.00000000     0.00000000     1.47992875
New lattice vectors in NEW alat (for information only):
     1.00000000     0.00000000     0.00000000
     0.00000000     1.00000000     0.00000000
     0.00000000     0.00000000     1.00000000
Discrepancy in bohr =     0.000000    0.000000    0.000000
     new conv_thr            =            1.0E-14 Ry

     new unit-cell volume =     90.43946 a.u.^3 (    13.40175 Ang^3 )
     density =      7.91330 g/cm^3

CELL_PARAMETERS (alat=  3.03304261)
   1.479928749   0.000000000   0.000000000
   0.000000000   1.479928749   0.000000000
   0.000000000   0.000000000   1.479928749

ATOMIC_POSITIONS (crystal)
Ti            0.0000000000        0.0000000000        0.0000000000
O             0.5000000000        0.5000000000        0.5000000000



     Writing config-only to output data dir ./tmp/TiO.save/
     NEW-OLD atomic charge density approx. for the potential

     Check: negative core charge=   -0.000271
     extrapolated charge   18.24133, renormalised to   18.00000

     total cpu time spent up to now is        8.3 secs

     Self-consistent Calculation

     iteration #  1     ecut=    70.00 Ry     beta= 0.20
     Davidson diagonalization with overlap
     ethr =  1.00E-06,  avg # of iterations =  3.1

     total cpu time spent up to now is        8.5 secs

     total energy              =    -225.25329809 Ry
     estimated scf accuracy    <       0.00301678 Ry

     iteration #  2     ecut=    70.00 Ry     beta= 0.20
     Davidson diagonalization with overlap
     ethr =  1.68E-05,  avg # of iterations =  3.0

     total cpu time spent up to now is        8.7 secs

     total energy              =    -225.25700855 Ry
     estimated scf accuracy    <       0.00033356 Ry

     iteration #  3     ecut=    70.00 Ry     beta= 0.20
     Davidson diagonalization with overlap
     ethr =  1.85E-06,  avg # of iterations =  1.0

     total cpu time spent up to now is        8.9 secs

     total energy              =    -225.25694480 Ry
     estimated scf accuracy    <       0.00015813 Ry

     iteration #  4     ecut=    70.00 Ry     beta= 0.20
     Davidson diagonalization with overlap
     ethr =  8.78E-07,  avg # of iterations =  1.0

     total cpu time spent up to now is        9.0 secs

     total energy              =    -225.25683825 Ry
     estimated scf accuracy    <       0.00006992 Ry

     iteration #  5     ecut=    70.00 Ry     beta= 0.20
     Davidson diagonalization with overlap
     ethr =  3.88E-07,  avg # of iterations =  2.0

     total cpu time spent up to now is        9.1 secs

     total energy              =    -225.25686996 Ry
     estimated scf accuracy    <       0.00000835 Ry

     iteration #  6     ecut=    70.00 Ry     beta= 0.20
     Davidson diagonalization with overlap
     ethr =  4.64E-08,  avg # of iterations =  1.0

     total cpu time spent up to now is        9.3 secs

     total energy              =    -225.25686087 Ry
     estimated scf accuracy    <       0.00001282 Ry

     iteration #  7     ecut=    70.00 Ry     beta= 0.20
     Davidson diagonalization with overlap
     ethr =  4.64E-08,  avg # of iterations =  2.1

     total cpu time spent up to now is        9.4 secs

     total energy              =    -225.25686451 Ry
     estimated scf accuracy    <       0.00000056 Ry

     iteration #  8     ecut=    70.00 Ry     beta= 0.20
     Davidson diagonalization with overlap
     ethr =  3.11E-09,  avg # of iterations =  1.0

     total cpu time spent up to now is        9.5 secs

     total energy              =    -225.25686447 Ry
     estimated scf accuracy    <       0.00000029 Ry

     iteration #  9     ecut=    70.00 Ry     beta= 0.20
     Davidson diagonalization with overlap
     ethr =  1.62E-09,  avg # of iterations =  1.0

     total cpu time spent up to now is        9.7 secs

     total energy              =    -225.25686443 Ry
     estimated scf accuracy    <       0.00000018 Ry

     iteration # 10     ecut=    70.00 Ry     beta= 0.20
     Davidson diagonalization with overlap
     ethr =  9.76E-10,  avg # of iterations =  1.0

     total cpu time spent up to now is        9.8 secs

     total energy              =    -225.25686438 Ry
     estimated scf accuracy    <       0.00000009 Ry

     iteration # 11     ecut=    70.00 Ry     beta= 0.20
     Davidson diagonalization with overlap
     ethr =  5.04E-10,  avg # of iterations =  2.0

     total cpu time spent up to now is       10.0 secs

     total energy              =    -225.25686440 Ry
     estimated scf accuracy    <          4.8E-10 Ry

     iteration # 12     ecut=    70.00 Ry     beta= 0.20
     Davidson diagonalization with overlap
     ethr =  2.67E-12,  avg # of iterations =  2.0

     total cpu time spent up to now is       10.1 secs

     total energy              =    -225.25686440 Ry
     estimated scf accuracy    <          4.8E-10 Ry

     iteration # 13     ecut=    70.00 Ry     beta= 0.20
     Davidson diagonalization with overlap
     ethr =  2.67E-12,  avg # of iterations =  1.0

     total cpu time spent up to now is       10.2 secs

     total energy              =    -225.25686440 Ry
     estimated scf accuracy    <          4.7E-10 Ry

     iteration # 14     ecut=    70.00 Ry     beta= 0.20
     Davidson diagonalization with overlap
     ethr =  2.59E-12,  avg # of iterations =  2.9

     total cpu time spent up to now is       10.4 secs

     total energy              =    -225.25686440 Ry
     estimated scf accuracy    <          4.7E-11 Ry

     iteration # 15     ecut=    70.00 Ry     beta= 0.20
     Davidson diagonalization with overlap
     ethr =  2.62E-13,  avg # of iterations =  2.9

     total cpu time spent up to now is       10.6 secs

     total energy              =    -225.25686440 Ry
     estimated scf accuracy    <          1.0E-11 Ry

     iteration # 16     ecut=    70.00 Ry     beta= 0.20
     Davidson diagonalization with overlap
     ethr =  1.00E-13,  avg # of iterations =  1.1

     total cpu time spent up to now is       10.7 secs

     total energy              =    -225.25686440 Ry
     estimated scf accuracy    <          2.2E-11 Ry

     iteration # 17     ecut=    70.00 Ry     beta= 0.20
     Davidson diagonalization with overlap
     ethr =  1.00E-13,  avg # of iterations =  2.0

     total cpu time spent up to now is       10.8 secs

     total energy              =    -225.25686440 Ry
     estimated scf accuracy    <          2.8E-13 Ry

     iteration # 18     ecut=    70.00 Ry     beta= 0.20
     Davidson diagonalization with overlap
     ethr =  1.00E-13,  avg # of iterations =  1.0

     total cpu time spent up to now is       11.0 secs

     total energy              =    -225.25686440 Ry
     estimated scf accuracy    <          1.5E-13 Ry

     iteration # 19     ecut=    70.00 Ry     beta= 0.20
     Davidson diagonalization with overlap
     ethr =  1.00E-13,  avg # of iterations =  1.0

     total cpu time spent up to now is       11.1 secs

     total energy              =    -225.25686440 Ry
     estimated scf accuracy    <          1.1E-13 Ry

     iteration # 20     ecut=    70.00 Ry     beta= 0.20
     Davidson diagonalization with overlap
     ethr =  1.00E-13,  avg # of iterations =  1.0

     total cpu time spent up to now is       11.2 secs

     total energy              =    -225.25686440 Ry
     estimated scf accuracy    <          1.2E-13 Ry

     iteration # 21     ecut=    70.00 Ry     beta= 0.20
     Davidson diagonalization with overlap
     ethr =  1.00E-13,  avg # of iterations =  1.0

     total cpu time spent up to now is       11.4 secs

     total energy              =    -225.25686440 Ry
     estimated scf accuracy    <          8.5E-14 Ry

     iteration # 22     ecut=    70.00 Ry     beta= 0.20
     Davidson diagonalization with overlap
     ethr =  1.00E-13,  avg # of iterations =  1.0

     total cpu time spent up to now is       11.5 secs

     total energy              =    -225.25686440 Ry
     estimated scf accuracy    <          2.1E-14 Ry

     iteration # 23     ecut=    70.00 Ry     beta= 0.20
     Davidson diagonalization with overlap
     ethr =  1.00E-13,  avg # of iterations =  1.0

     total cpu time spent up to now is       11.6 secs

     total energy              =    -225.25686440 Ry
     estimated scf accuracy    <          1.4E-14 Ry

     iteration # 24     ecut=    70.00 Ry     beta= 0.20
     Davidson diagonalization with overlap
     ethr =  1.00E-13,  avg # of iterations =  1.0

     total cpu time spent up to now is       11.7 secs

     total energy              =    -225.25686440 Ry
     estimated scf accuracy    <          3.1E-14 Ry

     iteration # 25     ecut=    70.00 Ry     beta= 0.20
     Davidson diagonalization with overlap
     ethr =  1.00E-13,  avg # of iterations =  1.0

     total cpu time spent up to now is       11.9 secs

     End of self-consistent calculation

          k = 0.0000 0.0000 0.0000 (   257 PWs)   bands (ev):

   -32.4093  -7.5236  -7.5236  -7.5236   1.0032  20.2621  20.2621  20.2621
    21.4585  21.4585  29.7227  29.7227  32.5701

          k = 0.0000 0.0000 0.0676 (   260 PWs)   bands (ev):

   -32.3691  -7.8391  -7.4976  -7.4976   1.2768  19.0301  20.1085  20.1085
    21.5836  22.5874  29.7900  29.7900  33.0519

          k = 0.0000 0.0000 0.1351 (   272 PWs)   bands (ev):

   -32.2630  -8.5925  -7.4339  -7.4339   1.9629  17.2375  19.6801  19.6801
    21.9183  24.4661  29.8104  29.8104  34.1791

          k = 0.0000 0.0000 0.2027 (   280 PWs)   bands (ev):

   -32.1284  -9.4272  -7.3494  -7.3494   2.8023  15.4779  19.1643  19.1643
    22.3697  26.5459  30.0386  30.0386  35.4703

          k = 0.0000 0.0000 0.2703 (   272 PWs)   bands (ev):

   -32.0130 -10.0418  -7.2787  -7.2787   3.5237  14.2131  18.7916  18.7916
    22.7955  28.5393  30.4573  30.4573  36.7470

          k = 0.0000 0.0000-0.3379 (   288 PWs)   bands (ev):

   -31.9719 -10.2709  -7.2552  -7.2552   3.8202  13.6709  18.6095  18.6095
    22.8732  29.2496  30.3437  30.3437  37.4430

          k = 0.0000 0.0676 0.0676 (   267 PWs)   bands (ev):

   -32.3300  -7.8857  -7.7253  -7.4750   1.5192  18.8931  19.1349  19.9751
    22.1597  23.0715  29.4170  29.6243  29.9916

          k = 0.0000 0.0676 0.1351 (   273 PWs)   bands (ev):

   -32.2244  -8.5594  -7.7001  -7.4092   2.1249  17.2409  18.9458  19.6707
    22.5012  24.6567  29.2143  29.5299  30.2485

          k = 0.0000 0.0676 0.2027 (   279 PWs)   bands (ev):

   -32.0903  -9.3696  -7.5992  -7.3272   2.8572  15.6001  18.7193  19.2378
    22.8072  26.6725  29.2162  29.6391  30.3373

          k = 0.0000 0.0676 0.2703 (   273 PWs)   bands (ev):

   -31.9765  -9.9729  -7.5117  -7.2585   3.4730  14.4243  18.5210  18.9211
    23.1189  28.5690  29.4788  29.8791  30.3706

          k = 0.0000 0.0676-0.3379 (   276 PWs)   bands (ev):

   -31.9334 -10.1952  -7.4789  -7.2340   3.7209  13.9685  18.4006  18.7624
    23.2054  29.2946  30.0054  30.2188  38.0791

          k = 0.0000 0.1351 0.1351 (   274 PWs)   bands (ev):

   -32.1208  -8.5886  -8.2293  -7.3465   2.5196  16.8916  18.0521  19.6016
    23.2745  25.5385  28.6905  29.0794  30.4077

          k = 0.0000 0.1351 0.2027 (   274 PWs)   bands (ev):

   -31.9891  -9.2198  -8.2142  -7.2683   2.9681  15.8559  17.8696  19.4699
    23.6279  27.1472  28.4368  28.8559  30.2686

          k = 0.0000 0.1351 0.2703 (   275 PWs)   bands (ev):

   -31.8801  -9.7868  -8.0995  -7.2044   3.3134  14.9854  17.8306  19.2918
    23.7504  28.5926  28.7536  28.8268  29.7870

          k = 0.0000 0.1351-0.3379 (   274 PWs)   bands (ev):

   -31.8372  -9.9965  -8.0517  -7.1822   3.4432  14.6961  17.8168  19.1878
    23.7605  28.8462  28.9099  29.3985  29.4352

          k = 0.0000 0.2027 0.2027 (   268 PWs)   bands (ev):

   -31.8610  -9.1333  -8.8115  -7.1957   3.0474  15.9050  17.3626  19.6995
    24.1009  27.8923  28.2337  28.2986  29.7227

          k = 0.0000 0.2027 0.2703 (   274 PWs)   bands (ev):

   -31.7572  -9.5448  -8.7793  -7.1383   3.0667  15.6976  17.2260  19.8075
    24.1084  27.7021  27.8114  28.9124  29.4993

          k = 0.0000 0.2027-0.3379 (   268 PWs)   bands (ev):

   -31.7152  -9.7369  -8.7200  -7.1128   3.0649  15.6026  17.2337  19.9303
    24.1104  27.6705  27.9625  28.4598  30.1462

          k = 0.0000 0.2703 0.2703 (   274 PWs)   bands (ev):

   -31.6555  -9.3775  -9.2597  -7.0835   2.8302  16.2581  16.8924  20.2942
    24.0028  27.0980  27.1767  27.9671  30.5458

          k = 0.0000 0.2703-0.3379 (   276 PWs)   bands (ev):

   -31.6165  -9.5136  -9.2359  -7.0624   2.7298  16.4173  16.8495  20.5172
    23.8616  26.7666  27.1688  27.4142  31.1158

          k = 0.0000-0.3379-0.3379 (   268 PWs)   bands (ev):

   -31.5758  -9.4229  -9.4229  -7.0407   2.5963  16.7789  16.7789  20.8480
    23.6622  26.5134  27.0264  27.0264  31.7306

          k = 0.0676 0.0676 0.0676 (   263 PWs)   bands (ev):

   -32.2895  -7.9189  -7.6957  -7.6957   1.7337  18.9441  19.0902  19.0902
    23.0633  23.0633  29.5360  29.5360  29.9953

          k = 0.0676 0.0676 0.1351 (   272 PWs)   bands (ev):

   -32.1854  -8.5248  -7.7140  -7.6251   2.2683  17.3205  18.8137  19.1111
    23.0715  24.7579  29.0490  29.6793  30.0231

          k = 0.0676 0.0676 0.2027 (   276 PWs)   bands (ev):

   -32.0524  -9.3130  -7.6106  -7.5342   2.9080  15.7541  18.4366  19.1355
    23.2172  26.7055  28.7962  29.9689  29.9809

          k = 0.0676 0.0676 0.2703 (   272 PWs)   bands (ev):

   -31.9401  -9.9052  -7.5197  -7.4575   3.4367  14.6346  18.1188  19.0969
    23.4270  28.4057  28.9869  29.7554  30.4344

          k = 0.0676 0.0676-0.3379 (   276 PWs)   bands (ev):

   -31.8977 -10.1238  -7.4869  -7.4294   3.6461  14.2135  17.9639  19.0156
    23.4844  28.8698  29.1206  29.7837  30.5409

          k = 0.0676 0.1351 0.1351 (   279 PWs)   bands (ev):

   -32.0839  -8.5528  -8.1977  -7.5892   2.6171  17.0990  17.8936  18.9505
    23.8068  25.3581  28.8996  29.1698  30.0305

          k = 0.0676 0.1351 0.2027 (   273 PWs)   bands (ev):

   -31.9523  -9.1668  -8.1829  -7.4982   3.0137  16.0234  17.6392  19.0937
    24.0333  26.9057  28.5217  29.1626  30.1283

          k = 0.0676 0.1351 0.2703 (   274 PWs)   bands (ev):

   -31.8444  -9.7245  -8.0712  -7.4236   3.3180  15.1315  17.4204  19.2731
    24.1012  27.8287  28.4311  29.4055  30.1573

          k = 0.0676 0.1351-0.3379 (   274 PWs)   bands (ev):

   -31.8024  -9.9319  -8.0256  -7.3948   3.4321  14.8160  17.3147  19.3522
    24.1407  28.0210  28.2679  29.8076  30.1985

          k = 0.0676 0.2027 0.2027 (   278 PWs)   bands (ev):

   -31.8277  -9.0846  -8.7758  -7.4174   3.0958  15.9783  17.0717  19.1543
    24.4809  27.4239  28.1044  28.8156  29.7615

          k = 0.0676 0.2027 0.2703 (   275 PWs)   bands (ev):

   -31.7230  -9.4899  -8.7419  -7.3489   3.1258  15.6850  16.8533  19.4185
    24.5128  27.4047  27.7861  29.4765  29.7206

          k = 0.0676 0.2027-0.3379 (   274 PWs)   bands (ev):

   -31.6823  -9.6806  -8.6850  -7.3219   3.1289  15.5569  16.7584  19.5595
    24.4763  27.1643  27.7893  29.4675  30.2344

          k = 0.0676 0.2703 0.2703 (   276 PWs)   bands (ev):

   -31.6224  -9.3290  -9.2174  -7.2863   2.9338  16.0355  16.5585  19.5882
    24.4252  27.0553  27.5238  28.7107  30.6324

          k = 0.0676 0.2703-0.3379 (   278 PWs)   bands (ev):

   -31.5836  -9.4667  -9.1913  -7.2622   2.8523  16.1279  16.4637  19.6620
    24.3068  26.9219  27.5252  28.2997  31.1227

          k = 0.0676-0.3379-0.3379 (   284 PWs)   bands (ev):

   -31.5464  -9.3820  -9.3820  -7.2403   2.7377  16.3581  16.3581  19.6597
    24.1644  27.3249  27.3249  27.3316  31.5837

          k = 0.1351 0.1351 0.1351 (   275 PWs)   bands (ev):

   -31.9827  -8.5307  -8.1104  -8.1104   2.8536  17.5142  17.5142  17.7952
    25.1497  25.1497  29.2559  29.4454  29.4454

          k = 0.1351 0.1351 0.2027 (   276 PWs)   bands (ev):

   -31.8559  -9.0326  -8.1708  -7.9998   3.1172  16.3173  17.0142  18.3923
    25.0327  26.6634  28.3329  29.3984  30.0874

          k = 0.1351 0.1351 0.2703 (   279 PWs)   bands (ev):

   -31.7513  -9.5591  -8.0613  -7.9104   3.3151  15.4070  16.6065  18.9897
    25.0342  27.3766  27.7040  29.7173  30.4158

          k = 0.1351 0.1351-0.3379 (   278 PWs)   bands (ev):

   -31.7104  -9.7582  -8.0144  -7.8749   3.3874  15.0831  16.4600  19.2268
    25.0731  27.2951  27.5439  30.1438  30.6226

          k = 0.1351 0.2027 0.2027 (   282 PWs)   bands (ev):

   -31.7347  -8.9541  -8.6736  -7.9643   3.2181  16.0336  16.4437  18.2070
    25.6668  27.2146  27.7242  29.5278  30.0619

          k = 0.1351 0.2027 0.2703 (   279 PWs)   bands (ev):

   -31.6324  -9.3461  -8.6442  -7.8738   3.2791  15.5240  15.9958  18.5114
    25.7525  27.3429  27.7253  30.0610  30.2904

          k = 0.1351 0.2027-0.3379 (   274 PWs)   bands (ev):

   -31.5920  -9.5308  -8.5897  -7.8369   3.2981  15.3370  15.8071  18.6953
    25.7702  27.2658  27.7051  30.4443  30.5436

          k = 0.1351 0.2703 0.2703 (   273 PWs)   bands (ev):

   -31.5326  -9.1998  -9.1022  -7.7915   3.2217  15.4059  15.7511  18.1527
    25.8480  27.5388  28.3130  29.9074  30.8009

          k = 0.1351 0.2703-0.3379 (   278 PWs)   bands (ev):

   -31.4957  -9.3395  -9.0792  -7.7607   3.1920  15.4475  15.5248  17.9989
    25.8257  27.7381  28.2523  29.6047  31.2157

          k = 0.1351-0.3379-0.3379 (   276 PWs)   bands (ev):

   -31.4576  -9.2626  -9.2626  -7.7285   3.1435  15.4782  15.4782  17.6765
    25.8363  28.4297  28.4297  28.9424  40.9370

          k = 0.2027 0.2027 0.2027 (   281 PWs)   bands (ev):

   -31.6156  -8.8429  -8.5433  -8.5433   3.3600  15.7068  15.7068  17.6177
    27.2682  27.2682  27.4238  30.2190  30.2190

          k = 0.2027 0.2027 0.2703 (   275 PWs)   bands (ev):

   -31.5160  -9.1615  -8.5708  -8.4347   3.4667  15.1488  15.1983  17.4878
    27.3973  27.6002  28.2542  30.4736  30.6834

          k = 0.2027 0.2027-0.3379 (   276 PWs)   bands (ev):

   -31.4783  -9.3383  -8.5210  -8.3939   3.5047  14.9231  14.9788  17.4336
    27.4254  27.9759  28.0585  30.7793  30.8562

          k = 0.2027 0.2703 0.2703 (   281 PWs)   bands (ev):

   -31.4220  -9.0382  -8.9591  -8.3916   3.6123  14.6395  14.8197  16.5392
    27.8581  28.3778  29.0722  30.6669  30.8946

          k = 0.2027 0.2703-0.3379 (   286 PWs)   bands (ev):

   -31.3861  -9.1768  -8.9384  -8.3539   3.6656  14.5140  14.6353  16.1620
    27.9657  28.7458  29.1173  30.6646  31.2570

          k = 0.2027-0.3379-0.3379 (   292 PWs)   bands (ev):

   -31.3510  -9.1140  -9.1140  -8.3183   3.7254  14.4912  14.4912  15.5787
    28.0563  29.4810  29.4810  30.0318  39.9665

          k = 0.2703 0.2703 0.2703 (   289 PWs)   bands (ev):

   -31.3311  -8.9240  -8.8389  -8.8389   3.9631  14.1295  14.1295  15.2635
    29.0751  29.7665  29.7665  30.9970  30.9970

          k = 0.2703 0.2703-0.3379 (   286 PWs)   bands (ev):

   -31.2945  -9.0405  -8.8417  -8.7906   4.1081  13.8845  14.0115  14.7414
    29.8417  29.9889  30.0965  31.1651  31.3833

          k = 0.2703-0.3379-0.3379 (   284 PWs)   bands (ev):

   -31.2586  -8.9864  -8.9864  -8.7703   4.2955  13.7877  13.7877  14.0873
    30.5052  30.6861  30.6861  30.9244  38.6605

          k =-0.3379-0.3379-0.3379 (   280 PWs)   bands (ev):

   -31.2227  -8.9374  -8.9374  -8.9374   4.5482  13.5270  13.5270  13.5270
    31.2471  31.2471  31.2471  38.0870  38.0870

     the Fermi energy is    26.2612 ev

!    total energy              =    -225.25686440 Ry
     total all-electron energy =     -1858.026665 Ry
     estimated scf accuracy    <          7.8E-15 Ry
     smearing contrib. (-TS)   =       0.00037962 Ry
     internal energy E=F+TS    =    -225.25724403 Ry

     The total energy is F=E-TS. E is the sum of the following terms:
     one-electron contribution =      -2.92691242 Ry
     hartree contribution      =      18.89833812 Ry
     xc contribution           =     -26.83380926 Ry
     ewald contribution        =    -139.50531604 Ry
     one-center paw contrib.   =     -74.88954442 Ry

     convergence has been achieved in  25 iterations

     Forces acting on atoms (cartesian axes, Ry/au):

     atom    1 type  1   force =     0.00000000    0.00000000    0.00000000
     atom    2 type  2   force =     0.00000000    0.00000000    0.00000000
     The non-local contrib.  to forces
     atom    1 type  1   force =     0.00000000    0.00000000    0.00000000
     atom    2 type  2   force =     0.00000000    0.00000000    0.00000000
     The ionic contribution  to forces
     atom    1 type  1   force =    -0.00000000   -0.00000000   -0.00000000
     atom    2 type  2   force =    -0.00000000   -0.00000000   -0.00000000
     The local contribution  to forces
     atom    1 type  1   force =     0.00000000    0.00000000   -0.00000000
     atom    2 type  2   force =     0.00000000    0.00000000    0.00000000
     The core correction contribution to forces
     atom    1 type  1   force =     0.00000000   -0.00000000    0.00000000
     atom    2 type  2   force =     0.00000000    0.00000000   -0.00000000
     The Hubbard contrib.    to forces
     atom    1 type  1   force =     0.00000000    0.00000000    0.00000000
     atom    2 type  2   force =     0.00000000    0.00000000    0.00000000
     The SCF correction term to forces
     atom    1 type  1   force =    -0.00000000    0.00000000    0.00000000
     atom    2 type  2   force =     0.00000000   -0.00000000    0.00000000

     Total force =     0.000000     Total SCF correction =     0.000000


     Computing stress (Cartesian axis) and pressure

          total   stress  (Ry/bohr**3)                   (kbar)     P=      321.30
   0.00218413   0.00000000   0.00000000          321.30        0.00        0.00
   0.00000000   0.00218413   0.00000000            0.00      321.30        0.00
   0.00000000   0.00000000   0.00218413            0.00        0.00      321.30

     Energy error            =      3.3E-03 Ry
     Gradient error          =      0.0E+00 Ry/Bohr
     Cell gradient error     =      3.2E+02 kbar

     number of scf cycles    =   3
     number of bfgs steps    =   2

     enthalpy           old  =    -225.2535160250 Ry
     enthalpy           new  =    -225.2568644023 Ry

     CASE: enthalpy          _new < enthalpy          _old

     new trust radius        =       0.0093931166 bohr
ibrav =      1
 celldm(1) =      4.51085463
Input lattice vectors:
     1.48723747     0.00000000     0.00000000
     0.00000000     1.48723747     0.00000000
     0.00000000     0.00000000     1.48723747
New lattice vectors in INITIAL alat:
     1.48723747     0.00000000     0.00000000
     0.00000000     1.48723747     0.00000000
     0.00000000     0.00000000     1.48723747
New lattice vectors in NEW alat (for information only):
     1.00000000     0.00000000     0.00000000
     0.00000000     1.00000000     0.00000000
     0.00000000     0.00000000     1.00000000
Discrepancy in bohr =     0.000000    0.000000    0.000000
     new conv_thr            =            1.0E-14 Ry

     new unit-cell volume =     91.78601 a.u.^3 (    13.60128 Ang^3 )
     density =      7.79720 g/cm^3

CELL_PARAMETERS (alat=  3.03304261)
   1.487237473   0.000000000   0.000000000
   0.000000000   1.487237473   0.000000000
   0.000000000   0.000000000   1.487237473

ATOMIC_POSITIONS (crystal)
Ti            0.0000000000        0.0000000000        0.0000000000
O             0.5000000000        0.5000000000        0.5000000000



     Writing config-only to output data dir ./tmp/TiO.save/
     NEW-OLD atomic charge density approx. for the potential

     Check: negative core charge=   -0.000284
     extrapolated charge   18.26405, renormalised to   18.00000

     total cpu time spent up to now is       12.1 secs

     Self-consistent Calculation

     iteration #  1     ecut=    70.00 Ry     beta= 0.20
     Davidson diagonalization with overlap
     ethr =  1.00E-06,  avg # of iterations =  3.1

     total cpu time spent up to now is       12.3 secs

     total energy              =    -225.25461024 Ry
     estimated scf accuracy    <       0.00369288 Ry

     iteration #  2     ecut=    70.00 Ry     beta= 0.20
     Davidson diagonalization with overlap
     ethr =  2.05E-05,  avg # of iterations =  3.0

     total cpu time spent up to now is       12.5 secs

     total energy              =    -225.25913177 Ry
     estimated scf accuracy    <       0.00040458 Ry

     iteration #  3     ecut=    70.00 Ry     beta= 0.20
     Davidson diagonalization with overlap
     ethr =  2.25E-06,  avg # of iterations =  1.0

     total cpu time spent up to now is       12.6 secs

     total energy              =    -225.25905378 Ry
     estimated scf accuracy    <       0.00019221 Ry

     iteration #  4     ecut=    70.00 Ry     beta= 0.20
     Davidson diagonalization with overlap
     ethr =  1.07E-06,  avg # of iterations =  1.0

     total cpu time spent up to now is       12.8 secs

     total energy              =    -225.25892625 Ry
     estimated scf accuracy    <       0.00008395 Ry

     iteration #  5     ecut=    70.00 Ry     beta= 0.20
     Davidson diagonalization with overlap
     ethr =  4.66E-07,  avg # of iterations =  2.0

     total cpu time spent up to now is       12.9 secs

     total energy              =    -225.25896504 Ry
     estimated scf accuracy    <       0.00001108 Ry

     iteration #  6     ecut=    70.00 Ry     beta= 0.20
     Davidson diagonalization with overlap
     ethr =  6.15E-08,  avg # of iterations =  1.0

     total cpu time spent up to now is       13.1 secs

     total energy              =    -225.25895382 Ry
     estimated scf accuracy    <       0.00001574 Ry

     iteration #  7     ecut=    70.00 Ry     beta= 0.20
     Davidson diagonalization with overlap
     ethr =  6.15E-08,  avg # of iterations =  2.0

     total cpu time spent up to now is       13.5 secs

     total energy              =    -225.25895830 Ry
     estimated scf accuracy    <       0.00000069 Ry

     iteration #  8     ecut=    70.00 Ry     beta= 0.20
[...]

     iteration #  3     ecut=    70.00 Ry     beta= 0.20
     Davidson diagonalization with overlap
     ethr =  1.81E-12,  avg # of iterations =  1.0

     total cpu time spent up to now is       22.3 secs

     total energy              =    -225.25943363 Ry
     estimated scf accuracy    <          1.5E-10 Ry

     iteration #  4     ecut=    70.00 Ry     beta= 0.20
     Davidson diagonalization with overlap
     ethr =  8.41E-13,  avg # of iterations =  1.2

     total cpu time spent up to now is       22.4 secs

     total energy              =    -225.25943363 Ry
     estimated scf accuracy    <          6.1E-11 Ry

     iteration #  5     ecut=    70.00 Ry     beta= 0.20
     Davidson diagonalization with overlap
     ethr =  3.39E-13,  avg # of iterations =  2.0

     total cpu time spent up to now is       22.6 secs

     total energy              =    -225.25943363 Ry
     estimated scf accuracy    <          5.9E-12 Ry

     iteration #  6     ecut=    70.00 Ry     beta= 0.20
     Davidson diagonalization with overlap
     ethr =  1.00E-13,  avg # of iterations =  1.0

     total cpu time spent up to now is       22.7 secs

     total energy              =    -225.25943363 Ry
     estimated scf accuracy    <          1.3E-11 Ry

     iteration #  7     ecut=    70.00 Ry     beta= 0.20
     Davidson diagonalization with overlap
     ethr =  1.00E-13,  avg # of iterations =  2.0

     total cpu time spent up to now is       22.9 secs

     total energy              =    -225.25943363 Ry
     estimated scf accuracy    <          5.5E-13 Ry

     iteration #  8     ecut=    70.00 Ry     beta= 0.20
     Davidson diagonalization with overlap
     ethr =  1.00E-13,  avg # of iterations =  1.0

     total cpu time spent up to now is       23.0 secs

     total energy              =    -225.25943363 Ry
     estimated scf accuracy    <          3.7E-13 Ry

     iteration #  9     ecut=    70.00 Ry     beta= 0.20
     Davidson diagonalization with overlap
     ethr =  1.00E-13,  avg # of iterations =  1.0

     total cpu time spent up to now is       23.1 secs

     total energy              =    -225.25943363 Ry
     estimated scf accuracy    <          9.1E-14 Ry

     iteration # 10     ecut=    70.00 Ry     beta= 0.20
     Davidson diagonalization with overlap
     ethr =  1.00E-13,  avg # of iterations =  1.0

     total cpu time spent up to now is       23.2 secs

     total energy              =    -225.25943363 Ry
     estimated scf accuracy    <          8.3E-14 Ry

     iteration # 11     ecut=    70.00 Ry     beta= 0.20
     Davidson diagonalization with overlap
     ethr =  1.00E-13,  avg # of iterations =  1.0

     total cpu time spent up to now is       23.4 secs

     End of self-consistent calculation

          k = 0.0000 0.0000 0.0000 (   257 PWs)   bands (ev):

   -33.0667  -8.2594  -8.2594  -8.2594   0.5143  19.6821  19.6821  19.6821
    20.9608  20.9608  28.9968  28.9968  31.3896

          k = 0.0000 0.0000 0.0670 (   260 PWs)   bands (ev):

   -33.0301  -8.5487  -8.2355  -8.2355   0.7690  18.4685  19.5369  19.5369
    21.0826  22.0435  29.0602  29.0602  31.8763

          k = 0.0000 0.0000 0.1340 (   272 PWs)   bands (ev):

   -32.9338  -9.2427  -8.1785  -8.1785   1.4141  16.6881  19.1236  19.1236
    21.4069  23.8647  29.0535  29.0535  33.0110

          k = 0.0000 0.0000 0.2010 (   280 PWs)   bands (ev):

   -32.8117 -10.0176  -8.1012  -8.1012   2.2100  14.9510  18.6287  18.6287
    21.8433  25.8626  29.2647  29.2647  34.3075

          k = 0.0000 0.0000 0.2680 (   272 PWs)   bands (ev):

   -32.7064 -10.5885  -8.0360  -8.0360   2.8946  13.7244  18.2771  18.2771
    22.2569  27.7964  29.6884  29.6884  35.5996

          k = 0.0000 0.0000-0.3350 (   288 PWs)   bands (ev):

   -32.6699 -10.8037  -8.0159  -8.0159   3.1749  13.1912  18.0957  18.0957
    22.3197  28.4666  29.2459  29.5478  29.5478

          k = 0.0000 0.0670 0.0670 (   267 PWs)   bands (ev):

   -32.9946  -8.5901  -8.4470  -8.2157   0.9955  18.3309  18.5792  19.4062
    21.6335  22.5149  28.7004  28.8752  29.2319

          k = 0.0000 0.0670 0.1340 (   273 PWs)   bands (ev):

   -32.8986  -9.2125  -8.4238  -8.1553   1.5670  16.6938  18.3937  19.1190
    21.9654  24.0479  28.4997  28.7634  29.4748

          k = 0.0000 0.0670 0.2010 (   279 PWs)   bands (ev):

   -32.7768  -9.9646  -8.3317  -8.0805   2.2644  15.0746  18.1838  18.7016
    22.2634  25.9893  28.4905  28.8625  29.5574

          k = 0.0000 0.0670 0.2680 (   273 PWs)   bands (ev):

   -32.6731 -10.5255  -8.2512  -8.0173   2.8527  13.9273  18.0084  18.4034
    22.5677  27.8270  28.7444  29.0990  29.6036

          k = 0.0000 0.0670-0.3350 (   276 PWs)   bands (ev):

   -32.6341 -10.7331  -8.2215  -7.9956   3.0892  13.4819  17.8928  18.2459
    22.6464  28.5202  28.9338  29.2269  29.4519

          k = 0.0000 0.1340 0.1340 (   274 PWs)   bands (ev):

   -32.8041  -9.2375  -8.9157  -8.0974   1.9441  16.3680  17.4909  19.0584
    22.7070  24.9062  27.9989  28.3075  29.6265

          k = 0.0000 0.1340 0.2010 (   274 PWs)   bands (ev):

   -32.6841  -9.8265  -8.9014  -8.0253   2.3798  15.3432  17.3187  18.9385
    23.0485  26.4570  27.7492  28.0836  29.5014

          k = 0.0000 0.1340 0.2680 (   275 PWs)   bands (ev):

   -32.5850 -10.3557  -8.7966  -7.9667   2.7202  14.4723  17.3014  18.7665
    23.1655  27.8981  27.9959  28.0664  29.0363

          k = 0.0000 0.1340-0.3350 (   274 PWs)   bands (ev):

   -32.5459 -10.5510  -8.7530  -7.9472   2.8491  14.1863  17.2992  18.6604
    23.1707  28.1406  28.1432  28.6257  28.7006

          k = 0.0000 0.2010 0.2010 (   268 PWs)   bands (ev):

   -32.5669  -9.7468  -9.4580  -7.9579   2.4750  15.4028  16.8007  19.1687
    23.4989  27.2301  27.4732  27.5879  28.9818

          k = 0.0000 0.2010 0.2680 (   274 PWs)   bands (ev):

   -32.4728 -10.1356  -9.4290  -7.9054   2.5142  15.1723  16.6746  19.2702
    23.4982  27.0370  27.0544  28.1982  28.7381

          k = 0.0000 0.2010-0.3350 (   268 PWs)   bands (ev):

   -32.4343 -10.3148  -9.3752  -7.8808   2.5218  15.0647  16.6947  19.4044
    23.5026  26.9148  27.2946  27.7748  29.3736

          k = 0.0000 0.2680 0.2680 (   274 PWs)   bands (ev):

   -32.3801  -9.9839  -9.8783  -7.8545   2.3161  15.7192  16.3218  19.7457
    23.3888  26.3539  26.5250  27.2880  29.7495

          k = 0.0000 0.2680-0.3350 (   276 PWs)   bands (ev):

   -32.3447 -10.1129  -9.8575  -7.8349   2.2316  15.8577  16.2853  19.9654
    23.2475  26.0214  26.5133  26.7577  30.3077

          k = 0.0000-0.3350-0.3350 (   268 PWs)   bands (ev):

   -32.3071 -10.0305 -10.0305  -7.8142   2.1164  16.2128  16.2128  20.2932
    23.0503  25.7794  26.3887  26.3887  30.9148

          k = 0.0670 0.0670 0.0670 (   263 PWs)   bands (ev):

   -32.9574  -8.6181  -8.4192  -8.4192   1.1967  18.3797  18.5441  18.5441
    22.5100  22.5100  28.8148  28.8148  29.2147

          k = 0.0670 0.0670 0.1340 (   272 PWs)   bands (ev):

   -32.8629  -9.1802  -8.4352  -8.3555   1.7031  16.7737  18.2787  18.5537
    22.5182  24.1515  28.3261  28.9307  29.2403

          k = 0.0670 0.0670 0.2010 (   276 PWs)   bands (ev):

   -32.7419  -9.9124  -8.3407  -8.2729   2.3155  15.2285  17.9229  18.5846
    22.6587  26.0265  28.0691  29.1962  29.2096

          k = 0.0670 0.0670 0.2680 (   272 PWs)   bands (ev):

   -32.6397 -10.4633  -8.2578  -8.2023   2.8241  14.1318  17.6264  18.5568
    22.8617  27.6840  28.2380  28.9995  29.6641

          k = 0.0670 0.0670-0.3350 (   276 PWs)   bands (ev):

   -32.6014 -10.6674  -8.2290  -8.1771   3.0256  13.7194  17.4757  18.4725
    22.9120  28.1317  28.3648  29.0215  29.7644

          k = 0.0670 0.1340 0.1340 (   279 PWs)   bands (ev):

   -32.7706  -9.2045  -8.8874  -8.3224   2.0384  16.5675  17.3405  18.4051
    23.2230  24.7280  28.1890  28.3997  29.2552

          k = 0.0670 0.1340 0.2010 (   273 PWs)   bands (ev):

   -32.6503  -9.7777  -8.8721  -8.2386   2.4266  15.5048  17.1128  18.5481
    23.4407  26.2311  27.7992  28.4176  29.3659

          k = 0.0670 0.1340 0.2680 (   274 PWs)   bands (ev):

   -32.5522 -10.2984  -8.7704  -8.1706   2.7290  14.6159  16.9258  18.7185
    23.5014  27.1304  27.6938  28.6597  29.3893

          k = 0.0670 0.1340-0.3350 (   274 PWs)   bands (ev):

   -32.5141 -10.4920  -8.7292  -8.1443   2.8433  14.3025  16.8318  18.7949
    23.5391  27.2942  27.5698  29.0332  29.4278

          k = 0.0670 0.2010 0.2010 (   278 PWs)   bands (ev):

   -32.5369  -9.7029  -9.4267  -8.1648   2.5242  15.4773  16.5212  18.6070
    23.8618  26.7378  27.3611  28.0967  28.9988

          k = 0.0670 0.2010 0.2680 (   275 PWs)   bands (ev):

   -32.4415 -10.0850  -9.3949  -8.1019   2.5732  15.1692  16.3309  18.8614
    23.8861  26.7016  27.0920  28.7256  28.9566

          k = 0.0670 0.2010-0.3350 (   274 PWs)   bands (ev):

   -32.4043 -10.2632  -9.3435  -8.0768   2.5849  15.0277  16.2553  18.9941
    23.8489  26.4589  27.1076  28.7301  29.4507

          k = 0.0670 0.2680 0.2680 (   276 PWs)   bands (ev):

   -32.3498  -9.9394  -9.8398  -8.0440   2.4161  15.5190  16.0125  19.0328
    23.7898  26.3494  26.8561  27.9761  29.8378

          k = 0.0670 0.2680-0.3350 (   278 PWs)   bands (ev):

   -32.3146 -10.0705  -9.8156  -8.0218   2.3493  15.5842  15.9333  19.1028
    23.6708  26.2240  26.8561  27.5743  30.3116

          k = 0.0670-0.3350-0.3350 (   284 PWs)   bands (ev):

   -32.2809  -9.9946  -9.9946  -8.0021   2.2514  15.8106  15.8106  19.1035
    23.5261  26.5794  26.6547  26.6547  30.7532

          k = 0.1340 0.1340 0.1340 (   275 PWs)   bands (ev):

   -32.6779  -9.1818  -8.8075  -8.8075   2.2710  16.9910  16.9910  17.2353
    24.5277  24.5277  28.5003  28.7048  28.7048

          k = 0.1340 0.1340 0.2010 (   276 PWs)   bands (ev):

   -32.5623  -9.6551  -8.8603  -8.7063   2.5364  15.7938  16.5265  17.8240
    24.4062  25.9900  27.5995  28.6663  29.3272

          k = 0.1340 0.1340 0.2680 (   279 PWs)   bands (ev):

   -32.4673 -10.1477  -8.7604  -8.6254   2.7400  14.8886  16.1467  18.4091
    24.3998  26.6859  26.9920  28.9495  29.6283

          k = 0.1340 0.1340-0.3350 (   278 PWs)   bands (ev):

   -32.4301 -10.3339  -8.7181  -8.5929   2.8154  14.5668  16.0124  18.6402
    24.4376  26.5923  26.8526  29.3564  29.8347

          k = 0.1340 0.2010 0.2010 (   282 PWs)   bands (ev):

   -32.4520  -9.5839  -9.3336  -8.6738   2.6507  15.5523  15.9362  17.6382
    25.0099  26.5182  27.0088  28.7758  29.2833

          k = 0.1340 0.2010 0.2680 (   279 PWs)   bands (ev):

   -32.3586  -9.9540  -9.3060  -8.5904   2.7271  15.0333  15.5246  17.9418
    25.0878  26.6410  27.0204  29.2821  29.5084

          k = 0.1340 0.2010-0.3350 (   274 PWs)   bands (ev):

   -32.3217 -10.1269  -9.2558  -8.5561   2.7533  14.8305  15.3644  18.1272
    25.1056  26.5684  27.0065  29.6658  29.7519

          k = 0.1340 0.2680 0.2680 (   273 PWs)   bands (ev):

   -32.2673  -9.8211  -9.7342  -8.5141   2.6941  14.9399  15.2601  17.6144
    25.1739  26.8325  27.6056  29.1359  30.0073

          k = 0.1340 0.2680-0.3350 (   278 PWs)   bands (ev):

   -32.2339  -9.9547  -9.7134  -8.4861   2.6750  14.9517  15.0573  17.4710
    25.1461  27.0243  27.5390  28.8293  30.4028

          k = 0.1340-0.3350-0.3350 (   276 PWs)   bands (ev):

   -32.1991  -9.8850  -9.8850  -8.4559   2.6388  14.9886  14.9886  17.1764
    25.1514  27.7201  27.7201  28.1748  30.8156

          k = 0.2010 0.2010 0.2010 (   281 PWs)   bands (ev):

   -32.3431  -9.4823  -9.2146  -9.2146   2.8015  15.2470  15.2470  17.0423
    26.5623  26.5623  26.7188  29.4425  29.4425

          k = 0.2010 0.2010 0.2680 (   275 PWs)   bands (ev):

   -32.2519  -9.7859  -9.2369  -9.1155   2.9187  14.7252  14.7322  16.9451
    26.6840  26.8988  27.5265  29.6865  29.8893

          k = 0.2010 0.2010-0.3350 (   276 PWs)   bands (ev):

   -32.2176  -9.9523  -9.1911  -9.0790   2.9616  14.5066  14.5098  16.9033
    26.7061  27.2572  27.3453  29.9720  30.0567

          k = 0.2010 0.2680 0.2680 (   281 PWs)   bands (ev):

   -32.1664  -9.6744  -9.6045  -9.0755   3.0707  14.2184  14.3799  16.0277
    27.1305  27.6371  28.3103  29.8687  30.0907

          k = 0.2010 0.2680-0.3350 (   286 PWs)   bands (ev):

   -32.1340  -9.8067  -9.5856  -9.0419   3.1274  14.0985  14.1907  15.6712
    27.2214  27.9821  28.3547  29.8667  30.4362

          k = 0.2010-0.3350-0.3350 (   292 PWs)   bands (ev):

   -32.1023  -9.7505  -9.7505  -9.0101   3.1903  14.0562  14.0562  15.1206
    27.2977  28.7049  28.7049  29.2227  38.8744

          k = 0.2680 0.2680 0.2680 (   289 PWs)   bands (ev):

   -32.0838  -9.5723  -9.4954  -9.4954   3.4085  13.7268  13.7268  14.7922
    28.3010  28.9722  28.9722  30.1866  30.1866

          k = 0.2680 0.2680-0.3350 (   286 PWs)   bands (ev):

   -32.0502  -9.6829  -9.4979  -9.4509   3.5480  13.4965  13.6039  14.3010
    29.0442  29.1990  29.2958  30.3651  30.5591

          k = 0.2680-0.3350-0.3350 (   284 PWs)   bands (ev):

   -32.0174  -9.6335  -9.6335  -9.4331   3.7253  13.3951  13.3951  13.6826
    29.6918  29.8862  29.8862  30.1156  30.9833

          k =-0.3350-0.3350-0.3350 (   280 PWs)   bands (ev):

   -31.9844  -9.5889  -9.5889  -9.5889   3.9602  13.1485  13.1485  13.1485
    30.4429  30.4429  30.4429  37.0312  37.0312

     the Fermi energy is    25.5891 ev

!    total energy              =    -225.25943363 Ry
     total all-electron energy =     -1858.029234 Ry
     estimated scf accuracy    <          1.1E-15 Ry
     smearing contrib. (-TS)   =       0.00039475 Ry
     internal energy E=F+TS    =    -225.25982838 Ry

     The total energy is F=E-TS. E is the sum of the following terms:
     one-electron contribution =      -4.55817618 Ry
     hartree contribution      =      19.27090975 Ry
     xc contribution           =     -26.77074112 Ry
     ewald contribution        =    -138.31380208 Ry
     one-center paw contrib.   =     -74.88801875 Ry

     convergence has been achieved in  11 iterations

     Forces acting on atoms (cartesian axes, Ry/au):

     atom    1 type  1   force =     0.00000000    0.00000000    0.00000000
     atom    2 type  2   force =     0.00000000    0.00000000    0.00000000
     The non-local contrib.  to forces
     atom    1 type  1   force =     0.00000000    0.00000000    0.00000000
     atom    2 type  2   force =     0.00000000    0.00000000    0.00000000
     The ionic contribution  to forces
     atom    1 type  1   force =    -0.00000000   -0.00000000   -0.00000000
     atom    2 type  2   force =     0.00000000    0.00000000    0.00000000
     The local contribution  to forces
     atom    1 type  1   force =     0.00000000   -0.00000000    0.00000000
     atom    2 type  2   force =    -0.00000000   -0.00000000   -0.00000000
     The core correction contribution to forces
     atom    1 type  1   force =    -0.00000000    0.00000000    0.00000000
     atom    2 type  2   force =    -0.00000000   -0.00000000   -0.00000000
     The Hubbard contrib.    to forces
     atom    1 type  1   force =     0.00000000    0.00000000    0.00000000
     atom    2 type  2   force =     0.00000000    0.00000000    0.00000000
     The SCF correction term to forces
     atom    1 type  1   force =     0.00000000    0.00000000    0.00000000
     atom    2 type  2   force =     0.00000000    0.00000000    0.00000000

     Total force =     0.000000     Total SCF correction =     0.000000


     Computing stress (Cartesian axis) and pressure

          total   stress  (Ry/bohr**3)                   (kbar)     P=        1.75
   0.00001187   0.00000000   0.00000000            1.75        0.00        0.00
   0.00000000   0.00001187   0.00000000            0.00        1.75        0.00
   0.00000000   0.00000000   0.00001187            0.00        0.00        1.75

     Message from routine bfgs:
     history already reset at previous step: exiting
     Energy error            =      7.8E-08 Ry
     Gradient error          =      0.0E+00 Ry/Bohr
     Cell gradient error     =      1.7E+00 kbar
ibrav =      1
 celldm(1) =      4.52736069
Input lattice vectors:
     1.49267955     0.00000000     0.00000000
     0.00000000     1.49267955     0.00000000
     0.00000000     0.00000000     1.49267955
New lattice vectors in INITIAL alat:
     1.49267955     0.00000000     0.00000000
     0.00000000     1.49267955     0.00000000
     0.00000000     0.00000000     1.49267955
New lattice vectors in NEW alat (for information only):
     1.00000000     0.00000000     0.00000000
     0.00000000     1.00000000     0.00000000
     0.00000000     0.00000000     1.00000000
Discrepancy in bohr =     0.000000    0.000000    0.000000

     bfgs failed after   7 scf cycles and   5 bfgs steps, convergence not achieved
     (criteria: energy <  1.0E-05 Ry, force <  1.0E-04 Ry/Bohr, cell <  5.0E-01 kbar)

     End of BFGS Geometry Optimization

     Final enthalpy           =    -225.2594336295 Ry

     File ./tmp/TiO.bfgs deleted, as requested
Begin final coordinates
     new unit-cell volume =     92.79729 a.u.^3 (    13.75114 Ang^3 )
     density =      7.71223 g/cm^3

CELL_PARAMETERS (alat=  3.03304261)
   1.492679553   0.000000000   0.000000000
   0.000000000   1.492679553   0.000000000
   0.000000000   0.000000000   1.492679553

ATOMIC_POSITIONS (crystal)
Ti            0.0000000000        0.0000000000        0.0000000000
O             0.5000000000        0.5000000000        0.5000000000
End final coordinates



     Writing config-only to output data dir ./tmp/TiO.save/

     Writing all to output data dir ./tmp/TiO.save/
 
     init_run     :      0.25s CPU      0.28s WALL (       1 calls)
     electrons    :     19.35s CPU     21.66s WALL (       7 calls)
     update_pot   :      0.43s CPU      0.45s WALL (       6 calls)
     forces       :      0.13s CPU      0.15s WALL (       7 calls)
     stress       :      0.34s CPU      0.36s WALL (       7 calls)

     Called by init_run:
     wfcinit      :      0.03s CPU      0.04s WALL (       1 calls)
     potinit      :      0.05s CPU      0.06s WALL (       1 calls)
     hinit0       :      0.16s CPU      0.17s WALL (       1 calls)

     Called by electrons:
     c_bands      :     10.97s CPU     12.64s WALL (     140 calls)
     sum_band     :      1.74s CPU      2.00s WALL (     140 calls)
     v_of_rho     :      0.09s CPU      0.09s WALL (     145 calls)
     newd         :      0.08s CPU      0.08s WALL (     145 calls)
     PAW_pot      :      6.91s CPU      7.07s WALL (     151 calls)
     mix_rho      :      0.04s CPU      0.04s WALL (     140 calls)

     Called by c_bands:
     init_us_2    :      0.19s CPU      0.22s WALL (    8428 calls)
     init_us_2:cp :      0.17s CPU      0.19s WALL (    8428 calls)
     cegterg      :     10.41s CPU     11.97s WALL (    3920 calls)

     Called by *egterg:
     cdiaghg      :      2.90s CPU      3.21s WALL (   10855 calls)
     h_psi        :      6.51s CPU      7.60s WALL (   11107 calls)
     s_psi        :      0.09s CPU      0.10s WALL (   11107 calls)
     g_psi        :      0.02s CPU      0.03s WALL (    7159 calls)

     Called by h_psi:
     h_psi:calbec :      0.27s CPU      0.32s WALL (   11107 calls)
     vloc_psi     :      5.98s CPU      6.99s WALL (   11107 calls)
     add_vuspsi   :      0.12s CPU      0.14s WALL (   11107 calls)

     General routines
     calbec       :      0.33s CPU      0.38s WALL (   16175 calls)
     fft          :      0.06s CPU      0.07s WALL (    1778 calls)
     ffts         :      0.01s CPU      0.01s WALL (     140 calls)
     fftw         :      6.33s CPU      7.43s WALL (  292950 calls)
     davcio       :      0.00s CPU      0.01s WALL (      28 calls)
 
     Parallel routines
 
     PWSCF        :     21.01s CPU     23.58s WALL

 
   This run was terminated on:  13:51:15  11Apr2025            

=------------------------------------------------------------------------------=
   JOB DONE.
=------------------------------------------------------------------------------=
