
     Program PWSCF v.7.2 starts on 17Apr2025 at 12:26:43 

     This program is part of the open-source Quantum ESPRESSO suite
     for quantum simulation of materials; please cite
         "P. Giannozzi et al., J. Phys.:Condens. Matter 21 395502 (2009);
         "P. Giannozzi et al., J. Phys.:Condens. Matter 29 465901 (2017);
         "P. Giannozzi et al., J. Chem. Phys. 152 154105 (2020);
          URL http://www.quantum-espresso.org", 
     in publications or presentations arising from this work. More details at
     http://www.quantum-espresso.org/quote

     Parallel version (MPI), running on    16 processors

     MPI processes distributed on     1 nodes
     245888 MiB available memory on the printing compute node when the environment starts
 
     Waiting for input...
     Reading input from standard input

     Current dimensions of program PWSCF are:
     Max number of different atomic species (ntypx) = 10
     Max number of k-points (npk) =  40000
     Max angular momentum in pseudopotentials (lmaxx) =  4
     file Ti.pbe-spn-kjpaw_psl.1.0.0.UPF: wavefunction(s)  3S 3P 3D renormalized
     file O.pbe-n-kjpaw_psl.1.0.0.UPF: wavefunction(s)  2S 2P renormalized
     Message from routine setup:
     using ibrav=0 with symmetry is DISCOURAGED, use correct ibrav instead
 
     R & G space division:  proc/nbgrp/npool/nimage =      16
     Subspace diagonalization in iterative solution of the eigenvalue problem:
     a serial algorithm will be used

 
     Parallelization info
     --------------------
     sticks:   dense  smooth     PW     G-vecs:    dense   smooth      PW
     Min         129     129     37                 3723     3723     573
     Max         130     130     38                 3726     3726     575
     Sum        2073    2073    599                59591    59591    9189
 
     Using Slab Decomposition
 


     bravais-lattice index     =            0
     lattice parameter (alat)  =      11.4632  a.u.
     unit-cell volume          =     753.1685 (a.u.)^3
     number of atoms/cell      =            2
     number of atomic types    =            2
     number of electrons       =        18.00
     number of Kohn-Sham states=           13
     kinetic-energy cutoff     =      70.0000  Ry
     charge density cutoff     =     280.0000  Ry
     scf convergence threshold =      1.0E-12
     mixing beta               =       0.2000
     number of iterations used =            8  plain     mixing
     energy convergence thresh.=      1.0E-05
     force convergence thresh. =      1.0E-04
     press convergence thresh. =      5.0E-01
     Exchange-correlation= SLA  PW   PBX  PBC
                           (   1   4   3   4   0   0   0)
     nstep                     =         1000


     celldm(1)=  11.463240  celldm(2)=   0.000000  celldm(3)=   0.000000
     celldm(4)=   0.000000  celldm(5)=   0.000000  celldm(6)=   0.000000

     crystal axes: (cart. coord. in units of alat)
               a(1) = (   0.500000   0.500000   0.500000 )  
               a(2) = (   0.500000   0.500000  -0.500000 )  
               a(3) = (  -0.500000   0.500000   0.500000 )  

     reciprocal axes: (cart. coord. in units 2 pi/alat)
               b(1) = (  1.000000  0.000000  1.000000 )  
               b(2) = (  0.000000  1.000000 -1.000000 )  
               b(3) = ( -1.000000  1.000000  0.000000 )  


     PseudoPot. # 1 for Ti read from file:
     ./Ti.pbe-spn-kjpaw_psl.1.0.0.UPF
     MD5 check sum: 01f69b0d8ba4438b2e03ac6ea4af1c0b
     Pseudo is Projector augmented-wave + core cor, Zval = 12.0
     Generated using &quot;atomic&quot; code by A. Dal Corso  v.6.2.2
     Shape of augmentation charge: PSQ
     Using radial grid of 1177 points,  6 beta functions with: 
                l(1) =   0
                l(2) =   0
                l(3) =   1
                l(4) =   1
                l(5) =   2
                l(6) =   2
     Q(r) pseudized with 0 coefficients 


     PseudoPot. # 2 for O  read from file:
     ./O.pbe-n-kjpaw_psl.1.0.0.UPF
     MD5 check sum: e99d9cef9b487d1ca56f5b95ecd0fd7a
     Pseudo is Projector augmented-wave + core cor, Zval =  6.0
     Generated using &quot;atomic&quot; code by A. Dal Corso  v.6.3
     Shape of augmentation charge: PSQ
     Using radial grid of 1095 points,  4 beta functions with: 
                l(1) =   0
                l(2) =   0
                l(3) =   1
                l(4) =   1
     Q(r) pseudized with 0 coefficients 


     atomic species   valence    mass     pseudopotential
        Ti            12.00    47.86700     Ti( 1.00)
        O              6.00    15.99900     O ( 1.00)

     12 Sym. Ops., with inversion, found



   Cartesian axes

     site n.     atom                  positions (alat units)
         1           Ti  tau(   1) = (   0.0000000   0.0000000   0.0000000  )
         2           O   tau(   2) = (   0.2500000   0.7500000   0.2500000  )

     number of k points=   116  Methfessel-Paxton smearing, width (Ry)=  0.0200

     Number of k-points >= 100: set verbosity='high' to print them.

     Dense  grid:    59591 G-vectors     FFT dimensions: (  54,  54,  54)

     Estimated max dynamical RAM per process >      35.61 MB

     Estimated total dynamical RAM >     569.82 MB

     Atomic positions and unit cell read from directory:
     ./tmp/TiO.save/
     Atomic positions from file used, from input discarded
 

     Check: negative core charge=   -0.000002

     The initial density is read from file :
     ./tmp/TiO.save/charge-density


     starting charge      14.6528, renormalised to      18.0000
     Starting wfcs from file
     Checking if some PAW data can be deallocated... 

     total cpu time spent up to now is        0.9 secs

     Self-consistent Calculation

     iteration #  1     ecut=    70.00 Ry     beta= 0.20
     Davidson diagonalization with overlap
     ethr =  1.00E-05,  avg # of iterations = 10.3

     total cpu time spent up to now is        6.8 secs

     total energy              =    -225.79644784 Ry
     estimated scf accuracy    <       2.38345022 Ry

     iteration #  2     ecut=    70.00 Ry     beta= 0.20
     Davidson diagonalization with overlap
     ethr =  1.00E-02,  avg # of iterations =  1.0

     total cpu time spent up to now is        8.2 secs

     total energy              =    -225.19125195 Ry
     estimated scf accuracy    <       1.06681549 Ry

     iteration #  3     ecut=    70.00 Ry     beta= 0.20
     Davidson diagonalization with overlap
     ethr =  5.93E-03,  avg # of iterations =  3.1

     total cpu time spent up to now is       10.1 secs

     total energy              =    -225.47516442 Ry
     estimated scf accuracy    <       0.17414390 Ry

     iteration #  4     ecut=    70.00 Ry     beta= 0.20
     Davidson diagonalization with overlap
     ethr =  9.67E-04,  avg # of iterations =  1.3

     total cpu time spent up to now is       11.5 secs

     total energy              =    -225.44211900 Ry
     estimated scf accuracy    <       0.09233293 Ry

     iteration #  5     ecut=    70.00 Ry     beta= 0.20
     Davidson diagonalization with overlap
     ethr =  5.13E-04,  avg # of iterations =  3.2

     total cpu time spent up to now is       13.2 secs

     total energy              =    -225.45754787 Ry
     estimated scf accuracy    <       0.02004511 Ry

     iteration #  6     ecut=    70.00 Ry     beta= 0.20
     Davidson diagonalization with overlap
     ethr =  1.11E-04,  avg # of iterations =  3.1

     total cpu time spent up to now is       15.0 secs

     total energy              =    -225.45221719 Ry
     estimated scf accuracy    <       0.03650854 Ry

     iteration #  7     ecut=    70.00 Ry     beta= 0.20
     Davidson diagonalization with overlap
     ethr =  1.11E-04,  avg # of iterations =  3.0

     total cpu time spent up to now is       16.7 secs

     total energy              =    -225.46052006 Ry
     estimated scf accuracy    <       0.00976849 Ry

     iteration #  8     ecut=    70.00 Ry     beta= 0.20
     Davidson diagonalization with overlap
     ethr =  5.43E-05,  avg # of iterations =  2.6

     total cpu time spent up to now is       18.2 secs

     total energy              =    -225.46211925 Ry
     estimated scf accuracy    <       0.00010822 Ry

     iteration #  9     ecut=    70.00 Ry     beta= 0.20
     Davidson diagonalization with overlap
     ethr =  6.01E-07,  avg # of iterations =  4.0

     total cpu time spent up to now is       20.2 secs

     total energy              =    -225.46253183 Ry
     estimated scf accuracy    <       0.00009318 Ry

     iteration # 10     ecut=    70.00 Ry     beta= 0.20
     Davidson diagonalization with overlap
     ethr =  5.18E-07,  avg # of iterations =  1.1

     total cpu time spent up to now is       21.5 secs

     total energy              =    -225.46252790 Ry
     estimated scf accuracy    <       0.00002610 Ry

     iteration # 11     ecut=    70.00 Ry     beta= 0.20
     Davidson diagonalization with overlap
     ethr =  1.45E-07,  avg # of iterations =  3.0

     total cpu time spent up to now is       23.2 secs

     total energy              =    -225.46253421 Ry
     estimated scf accuracy    <       0.00000010 Ry

     iteration # 12     ecut=    70.00 Ry     beta= 0.20
     Davidson diagonalization with overlap
     ethr =  5.62E-10,  avg # of iterations =  2.6

     total cpu time spent up to now is       24.8 secs

     total energy              =    -225.46253425 Ry
     estimated scf accuracy    <       0.00000003 Ry

     iteration # 13     ecut=    70.00 Ry     beta= 0.20
     Davidson diagonalization with overlap
     ethr =  1.82E-10,  avg # of iterations =  3.0

     total cpu time spent up to now is       26.6 secs

     total energy              =    -225.46253425 Ry
     estimated scf accuracy    <       0.00000006 Ry

     iteration # 14     ecut=    70.00 Ry     beta= 0.20
     Davidson diagonalization with overlap
     ethr =  1.82E-10,  avg # of iterations =  2.3

     total cpu time spent up to now is       28.1 secs

     total energy              =    -225.46253425 Ry
     estimated scf accuracy    <          7.9E-09 Ry

     iteration # 15     ecut=    70.00 Ry     beta= 0.20
     Davidson diagonalization with overlap
     ethr =  4.37E-11,  avg # of iterations =  2.9

     total cpu time spent up to now is       29.7 secs

     total energy              =    -225.46253426 Ry
     estimated scf accuracy    <          4.2E-11 Ry

     iteration # 16     ecut=    70.00 Ry     beta= 0.20
     Davidson diagonalization with overlap
     ethr =  2.34E-13,  avg # of iterations =  3.6

     total cpu time spent up to now is       31.6 secs

     total energy              =    -225.46253426 Ry
     estimated scf accuracy    <          7.5E-11 Ry

     iteration # 17     ecut=    70.00 Ry     beta= 0.20
     Davidson diagonalization with overlap
     ethr =  2.34E-13,  avg # of iterations =  3.1

     total cpu time spent up to now is       33.5 secs

     total energy              =    -225.46253426 Ry
     estimated scf accuracy    <          3.4E-10 Ry

     iteration # 18     ecut=    70.00 Ry     beta= 0.20
     Davidson diagonalization with overlap
     ethr =  2.34E-13,  avg # of iterations =  1.7

     total cpu time spent up to now is       34.9 secs

     total energy              =    -225.46253426 Ry
     estimated scf accuracy    <          2.3E-10 Ry

     iteration # 19     ecut=    70.00 Ry     beta= 0.20
     Davidson diagonalization with overlap
     ethr =  2.34E-13,  avg # of iterations =  3.0

     total cpu time spent up to now is       36.7 secs

     total energy              =    -225.46253426 Ry
     estimated scf accuracy    <          1.6E-11 Ry

     iteration # 20     ecut=    70.00 Ry     beta= 0.20
     Davidson diagonalization with overlap
     ethr =  1.00E-13,  avg # of iterations =  1.0

     total cpu time spent up to now is       38.0 secs

     total energy              =    -225.46253426 Ry
     estimated scf accuracy    <          1.9E-11 Ry

     iteration # 21     ecut=    70.00 Ry     beta= 0.20
     Davidson diagonalization with overlap
     ethr =  1.00E-13,  avg # of iterations =  1.0

     total cpu time spent up to now is       39.4 secs

     total energy              =    -225.46253426 Ry
     estimated scf accuracy    <          1.7E-11 Ry

     iteration # 22     ecut=    70.00 Ry     beta= 0.20
     Davidson diagonalization with overlap
     ethr =  1.00E-13,  avg # of iterations =  1.0

     total cpu time spent up to now is       40.7 secs

     total energy              =    -225.46253426 Ry
     estimated scf accuracy    <          1.7E-11 Ry

     iteration # 23     ecut=    70.00 Ry     beta= 0.20
     Davidson diagonalization with overlap
     ethr =  1.00E-13,  avg # of iterations =  1.0

     total cpu time spent up to now is       42.1 secs

     total energy              =    -225.46253426 Ry
     estimated scf accuracy    <          1.2E-11 Ry

     iteration # 24     ecut=    70.00 Ry     beta= 0.20
     Davidson diagonalization with overlap
     ethr =  1.00E-13,  avg # of iterations =  1.0

     total cpu time spent up to now is       43.4 secs

     total energy              =    -225.46253426 Ry
     estimated scf accuracy    <          4.9E-12 Ry

     iteration # 25     ecut=    70.00 Ry     beta= 0.20
     Davidson diagonalization with overlap
     ethr =  1.00E-13,  avg # of iterations =  1.3

     total cpu time spent up to now is       44.8 secs

     End of self-consistent calculation

     Number of k-points >= 100: set verbosity='high' to print the bands.

     the Fermi energy is    16.4096 ev

!    total energy              =    -225.46253426 Ry
     total all-electron energy =     -1858.232334 Ry
     estimated scf accuracy    <          8.2E-13 Ry
     smearing contrib. (-TS)   =       0.00062821 Ry
     internal energy E=F+TS    =    -225.46316246 Ry

     The total energy is F=E-TS. E is the sum of the following terms:
     one-electron contribution =     -31.24978711 Ry
     hartree contribution      =      27.17838290 Ry
     xc contribution           =     -26.21501876 Ry
     ewald contribution        =    -120.27637121 Ry
     one-center paw contrib.   =     -74.90036828 Ry

     convergence has been achieved in  25 iterations

     Forces acting on atoms (cartesian axes, Ry/au):

     atom    1 type  1   force =    -0.00000000   -0.00000000   -0.00000000
     atom    2 type  2   force =    -0.00000000   -0.00000000   -0.00000000
     The non-local contrib.  to forces
     atom    1 type  1   force =     0.00000000   -0.00000000    0.00000000
     atom    2 type  2   force =    -0.00000000   -0.00000000   -0.00000000
     The ionic contribution  to forces
     atom    1 type  1   force =    -0.00000000    0.00000000   -0.00000000
     atom    2 type  2   force =     0.00000000   -0.00000000    0.00000000
     The local contribution  to forces
     atom    1 type  1   force =     0.00000000   -0.00000000    0.00000000
     atom    2 type  2   force =    -0.00000000   -0.00000000    0.00000000
     The core correction contribution to forces
     atom    1 type  1   force =     0.00000000    0.00000000   -0.00000000
     atom    2 type  2   force =    -0.00000000    0.00000000   -0.00000000
     The Hubbard contrib.    to forces
     atom    1 type  1   force =     0.00000000    0.00000000    0.00000000
     atom    2 type  2   force =     0.00000000    0.00000000    0.00000000
     The SCF correction term to forces
     atom    1 type  1   force =    -0.00000000   -0.00000000    0.00000000
     atom    2 type  2   force =    -0.00000000   -0.00000000    0.00000000

     Total force =     0.000000     Total SCF correction =     0.000000


     Computing stress (Cartesian axis) and pressure

          total   stress  (Ry/bohr**3)                   (kbar)     P=       98.03
   0.00066639  -0.00126625   0.00126625           98.03     -186.27      186.27
  -0.00126625   0.00066639  -0.00126625         -186.27       98.03     -186.27
   0.00126625  -0.00126625   0.00066639          186.27     -186.27       98.03

     Energy error            =      3.6E-02 Ry
     Gradient error          =      5.3E-29 Ry/Bohr
     Cell gradient error     =      1.9E+02 kbar

     number of scf cycles    =  22
     number of bfgs steps    =  21

     enthalpy           old  =    -225.4266294105 Ry
     enthalpy           new  =    -225.4625342563 Ry

     CASE: enthalpy          _new < enthalpy          _old


     WARNING: bfgs curvature condition failed, Theta= 0.561
     new trust radius        =       0.2729904741 bohr
WARNING! With ibrav=0, cell_dofree='ibrav' has no effect. 
     new conv_thr            =            1.0E-14 Ry

     new unit-cell volume =    190.04312 a.u.^3 (    28.16148 Ang^3 )
     density =      3.76585 g/cm^3

CELL_PARAMETERS (alat= 11.46323974)
   0.322829254   0.224476828   0.322829254
   0.224476828   0.322829254  -0.322829254
  -0.322829254   0.322829254   0.224476828

ATOMIC_POSITIONS (crystal)
Ti            0.0000000000       -0.0000000000       -0.0000000000
O             0.5000000000        0.5000000000        0.5000000000



     Writing config-only to output data dir ./tmp/TiO.save/
     NEW-OLD atomic charge density approx. for the potential

     Check: negative core charge=   -0.000002
     extrapolated charge   23.06455, renormalised to   18.00000

     total cpu time spent up to now is       46.8 secs

     Self-consistent Calculation

     iteration #  1     ecut=    70.00 Ry     beta= 0.20
     Davidson diagonalization with overlap
     ethr =  1.00E-06,  avg # of iterations =  8.3

     total cpu time spent up to now is       50.5 secs

     total energy              =    -222.48817411 Ry
     estimated scf accuracy    <       2.02570935 Ry

     iteration #  2     ecut=    70.00 Ry     beta= 0.20
     Davidson diagonalization with overlap
     ethr =  1.00E-02,  avg # of iterations =  3.6

     total cpu time spent up to now is       52.9 secs

     total energy              =    -225.69417430 Ry
     estimated scf accuracy    <       1.37989863 Ry

     iteration #  3     ecut=    70.00 Ry     beta= 0.20
     Davidson diagonalization with overlap
     ethr =  7.67E-03,  avg # of iterations =  1.0

     total cpu time spent up to now is       54.2 secs

     total energy              =    -225.41215824 Ry
     estimated scf accuracy    <       0.86123022 Ry

     iteration #  4     ecut=    70.00 Ry     beta= 0.20
     Davidson diagonalization with overlap
     ethr =  4.78E-03,  avg # of iterations =  1.8

     total cpu time spent up to now is       55.6 secs

     total energy              =    -225.36501682 Ry
     estimated scf accuracy    <       0.22146283 Ry

     iteration #  5     ecut=    70.00 Ry     beta= 0.20
     Davidson diagonalization with overlap
     ethr =  1.23E-03,  avg # of iterations =  3.1

     total cpu time spent up to now is       57.3 secs

     total energy              =    -225.40294872 Ry
     estimated scf accuracy    <       0.01722252 Ry

     iteration #  6     ecut=    70.00 Ry     beta= 0.20
     Davidson diagonalization with overlap
     ethr =  9.57E-05,  avg # of iterations =  4.0

     total cpu time spent up to now is       59.4 secs

     total energy              =    -225.40839346 Ry
     estimated scf accuracy    <       0.00316211 Ry

     iteration #  7     ecut=    70.00 Ry     beta= 0.20
     Davidson diagonalization with overlap
     ethr =  1.76E-05,  avg # of iterations =  1.4

     total cpu time spent up to now is       60.7 secs

     total energy              =    -225.40523203 Ry
     estimated scf accuracy    <       0.00266959 Ry

     iteration #  8     ecut=    70.00 Ry     beta= 0.20
     Davidson diagonalization with overlap
     ethr =  1.48E-05,  avg # of iterations =  3.5

     total cpu time spent up to now is       62.4 secs

     total energy              =    -225.40551369 Ry
     estimated scf accuracy    <       0.00010383 Ry

     iteration #  9     ecut=    70.00 Ry     beta= 0.20
     Davidson diagonalization with overlap
     ethr =  5.77E-07,  avg # of iterations =  3.7

     total cpu time spent up to now is       64.3 secs

     total energy              =    -225.40518951 Ry
     estimated scf accuracy    <       0.00089721 Ry

     iteration # 10     ecut=    70.00 Ry     beta= 0.20
     Davidson diagonalization with overlap
     ethr =  5.77E-07,  avg # of iterations =  3.6

     total cpu time spent up to now is       66.5 secs

     total energy              =    -225.40529754 Ry
     estimated scf accuracy    <       0.00062649 Ry

     iteration # 11     ecut=    70.00 Ry     beta= 0.20
     Davidson diagonalization with overlap
     ethr =  5.77E-07,  avg # of iterations =  3.7

     total cpu time spent up to now is       68.3 secs

     total energy              =    -225.40542993 Ry
     estimated scf accuracy    <       0.00006584 Ry

     iteration # 12     ecut=    70.00 Ry     beta= 0.20
     Davidson diagonalization with overlap
     ethr =  3.66E-07,  avg # of iterations =  1.0

     total cpu time spent up to now is       69.7 secs

     total energy              =    -225.40542280 Ry
     estimated scf accuracy    <       0.00001835 Ry

     iteration # 13     ecut=    70.00 Ry     beta= 0.20
     Davidson diagonalization with overlap
     ethr =  1.02E-07,  avg # of iterations =  3.0

     total cpu time spent up to now is       71.4 secs

     total energy              =    -225.40543136 Ry
     estimated scf accuracy    <       0.00001303 Ry

     iteration # 14     ecut=    70.00 Ry     beta= 0.20
     Davidson diagonalization with overlap
     ethr =  7.24E-08,  avg # of iterations =  1.0

     total cpu time spent up to now is       72.8 secs

     total energy              =    -225.40543130 Ry
     estimated scf accuracy    <       0.00000245 Ry

     iteration # 15     ecut=    70.00 Ry     beta= 0.20
     Davidson diagonalization with overlap
     ethr =  1.36E-08,  avg # of iterations =  2.9

     total cpu time spent up to now is       74.4 secs

     total energy              =    -225.40543271 Ry
     estimated scf accuracy    <       0.00000068 Ry

     iteration # 16     ecut=    70.00 Ry     beta= 0.20
     Davidson diagonalization with overlap
     ethr =  3.80E-09,  avg # of iterations =  1.0

     total cpu time spent up to now is       75.8 secs

     total energy              =    -225.40543263 Ry
     estimated scf accuracy    <       0.00000050 Ry

     iteration # 17     ecut=    70.00 Ry     beta= 0.20
     Davidson diagonalization with overlap
     ethr =  2.76E-09,  avg # of iterations =  1.0

     total cpu time spent up to now is       77.1 secs

     total energy              =    -225.40543259 Ry
     estimated scf accuracy    <       0.00000020 Ry

     iteration # 18     ecut=    70.00 Ry     beta= 0.20
     Davidson diagonalization with overlap
     ethr =  1.11E-09,  avg # of iterations =  2.3

     total cpu time spent up to now is       78.7 secs

     total energy              =    -225.40543262 Ry
     estimated scf accuracy    <          8.0E-09 Ry

     iteration # 19     ecut=    70.00 Ry     beta= 0.20
     Davidson diagonalization with overlap
     ethr =  4.43E-11,  avg # of iterations =  3.2

     total cpu time spent up to now is       80.3 secs

     total energy              =    -225.40543262 Ry
     estimated scf accuracy    <          9.6E-11 Ry

     iteration # 20     ecut=    70.00 Ry     beta= 0.20
     Davidson diagonalization with overlap
     ethr =  5.32E-13,  avg # of iterations =  3.4

     total cpu time spent up to now is       82.0 secs

     total energy              =    -225.40543262 Ry
     estimated scf accuracy    <          2.6E-10 Ry

     iteration # 21     ecut=    70.00 Ry     beta= 0.20
     Davidson diagonalization with overlap
     ethr =  5.32E-13,  avg # of iterations =  1.5

     total cpu time spent up to now is       83.4 secs

     total energy              =    -225.40543262 Ry
     estimated scf accuracy    <          4.0E-10 Ry

     iteration # 22     ecut=    70.00 Ry     beta= 0.20
     Davidson diagonalization with overlap
     ethr =  5.32E-13,  avg # of iterations =  1.0

     total cpu time spent up to now is       84.7 secs

     total energy              =    -225.40543262 Ry
     estimated scf accuracy    <          2.3E-10 Ry

     iteration # 23     ecut=    70.00 Ry     beta= 0.20
     Davidson diagonalization with overlap
     ethr =  5.32E-13,  avg # of iterations =  3.0

     total cpu time spent up to now is       86.5 secs

     total energy              =    -225.40543262 Ry
     estimated scf accuracy    <          3.3E-11 Ry

     iteration # 24     ecut=    70.00 Ry     beta= 0.20
     Davidson diagonalization with overlap
     ethr =  1.86E-13,  avg # of iterations =  1.0

     total cpu time spent up to now is       87.9 secs

     total energy              =    -225.40543262 Ry
     estimated scf accuracy    <          7.2E-12 Ry

     iteration # 25     ecut=    70.00 Ry     beta= 0.20
     Davidson diagonalization with overlap
     ethr =  1.00E-13,  avg # of iterations =  3.0

     total cpu time spent up to now is       89.5 secs

     total energy              =    -225.40543262 Ry
     estimated scf accuracy    <          5.5E-13 Ry

     iteration # 26     ecut=    70.00 Ry     beta= 0.20
     Davidson diagonalization with overlap
     ethr =  1.00E-13,  avg # of iterations =  1.0

     total cpu time spent up to now is       90.9 secs

     total energy              =    -225.40543262 Ry
     estimated scf accuracy    <          2.9E-13 Ry

     iteration # 27     ecut=    70.00 Ry     beta= 0.20
     Davidson diagonalization with overlap
     ethr =  1.00E-13,  avg # of iterations =  1.0

     total cpu time spent up to now is       92.2 secs

     total energy              =    -225.40543262 Ry
     estimated scf accuracy    <          1.6E-14 Ry

     iteration # 28     ecut=    70.00 Ry     beta= 0.20
     Davidson diagonalization with overlap
     ethr =  1.00E-13,  avg # of iterations =  1.0

     total cpu time spent up to now is       93.6 secs

     total energy              =    -225.40543262 Ry
     estimated scf accuracy    <          1.2E-13 Ry

     iteration # 29     ecut=    70.00 Ry     beta= 0.20
     Davidson diagonalization with overlap
     ethr =  1.00E-13,  avg # of iterations =  1.0

     total cpu time spent up to now is       94.9 secs

     total energy              =    -225.40543262 Ry
     estimated scf accuracy    <          7.7E-14 Ry

     iteration # 30     ecut=    70.00 Ry     beta= 0.20
     Davidson diagonalization with overlap
     ethr =  1.00E-13,  avg # of iterations =  1.0

     total cpu time spent up to now is       96.3 secs

     total energy              =    -225.40543262 Ry
     estimated scf accuracy    <          2.5E-14 Ry

     iteration # 31     ecut=    70.00 Ry     beta= 0.20
     Davidson diagonalization with overlap
     ethr =  1.00E-13,  avg # of iterations =  1.0

     total cpu time spent up to now is       97.6 secs

     End of self-consistent calculation

     Number of k-points >= 100: set verbosity='high' to print the bands.

     the Fermi energy is    10.6799 ev

!    total energy              =    -225.40543262 Ry
     total all-electron energy =     -1858.175233 Ry
     estimated scf accuracy    <          3.7E-15 Ry
     smearing contrib. (-TS)   =       0.00107373 Ry
     internal energy E=F+TS    =    -225.40650635 Ry

     The total energy is F=E-TS. E is the sum of the following terms:
     one-electron contribution =     -49.60402972 Ry
     hartree contribution      =      32.77635837 Ry
     xc contribution           =     -25.79418728 Ry
     ewald contribution        =    -107.88628890 Ry
     one-center paw contrib.   =     -74.89835882 Ry

     convergence has been achieved in  31 iterations

     Forces acting on atoms (cartesian axes, Ry/au):

     atom    1 type  1   force =    -0.00000000    0.00000000   -0.00000000
     atom    2 type  2   force =    -0.00000000   -0.00000000   -0.00000000
     The non-local contrib.  to forces
     atom    1 type  1   force =    -0.00000000   -0.00000000   -0.00000000
     atom    2 type  2   force =    -0.00000000    0.00000000   -0.00000000
     The ionic contribution  to forces
     atom    1 type  1   force =    -0.00000000    0.00000000   -0.00000000
     atom    2 type  2   force =     0.00000000   -0.00000000    0.00000000
     The local contribution  to forces
     atom    1 type  1   force =    -0.00000000    0.00000000    0.00000000
     atom    2 type  2   force =    -0.00000000   -0.00000000    0.00000000
     The core correction contribution to forces
     atom    1 type  1   force =     0.00000000    0.00000000   -0.00000000
     atom    2 type  2   force =     0.00000000    0.00000000   -0.00000000
     The Hubbard contrib.    to forces
     atom    1 type  1   force =     0.00000000    0.00000000    0.00000000
     atom    2 type  2   force =     0.00000000    0.00000000    0.00000000
     The SCF correction term to forces
     atom    1 type  1   force =    -0.00000000    0.00000000   -0.00000000
     atom    2 type  2   force =    -0.00000000    0.00000000    0.00000000

     Total force =     0.000000     Total SCF correction =     0.000000


     Computing stress (Cartesian axis) and pressure

          total   stress  (Ry/bohr**3)                   (kbar)     P=     -293.71
  -0.00199663   0.00029485  -0.00029485         -293.71       43.37      -43.37
   0.00029485  -0.00199663   0.00029485           43.37     -293.71       43.37
  -0.00029485   0.00029485  -0.00199663          -43.37       43.37     -293.71

     Energy error            =      5.7E-02 Ry
     Gradient error          =      8.2E-29 Ry/Bohr
     Cell gradient error     =      2.9E+02 kbar

     number of scf cycles    =  23
     number of bfgs steps    =  22

     enthalpy           old  =    -225.4625342563 Ry
     enthalpy           new  =    -225.4054326207 Ry

     CASE: enthalpy          _new > enthalpy          _old

     new trust radius        =       0.0577530998 bohr
WARNING! With ibrav=0, cell_dofree='ibrav' has no effect. 
     new conv_thr            =            1.0E-14 Ry

     new unit-cell volume =    146.35707 a.u.^3 (    21.68788 Ang^3 )
     density =      4.88992 g/cm^3

CELL_PARAMETERS (alat= 11.46323974)
   0.295528140   0.208307492   0.295528140
   0.208307492   0.295528140  -0.295528140
  -0.295528140   0.295528140   0.208307492

ATOMIC_POSITIONS (crystal)
Ti            0.0000000000       -0.0000000000       -0.0000000000
O             0.5000000000        0.5000000000        0.5000000000



     Writing config-only to output data dir ./tmp/TiO.save/
     NEW-OLD atomic charge density approx. for the potential

     Check: negative core charge=   -0.000002
     extrapolated charge   12.62763, renormalised to   18.00000

     total cpu time spent up to now is       99.6 secs

     Self-consistent Calculation

     iteration #  1     ecut=    70.00 Ry     beta= 0.20
     Davidson diagonalization with overlap
     ethr =  1.00E-06,  avg # of iterations =  5.1

     total cpu time spent up to now is      102.8 secs

     total energy              =    -210.95970355 Ry
     estimated scf accuracy    <      33.50864096 Ry

     iteration #  2     ecut=    70.00 Ry     beta= 0.20
     Davidson diagonalization with overlap
     ethr =  1.00E-02,  avg # of iterations =  4.0

     total cpu time spent up to now is      105.2 secs

     total energy              =    -226.30086794 Ry
     estimated scf accuracy    <       7.44108084 Ry

     iteration #  3     ecut=    70.00 Ry     beta= 0.20
     Davidson diagonalization with overlap
     ethr =  1.00E-02,  avg # of iterations =  1.7

     total cpu time spent up to now is      106.6 secs

     total energy              =    -224.62180574 Ry
     estimated scf accuracy    <       3.47350634 Ry

     iteration #  4     ecut=    70.00 Ry     beta= 0.20
     Davidson diagonalization with overlap
     ethr =  1.00E-02,  avg # of iterations =  3.4

     total cpu time spent up to now is      108.5 secs

     total energy              =    -225.44813687 Ry
     estimated scf accuracy    <       0.31277727 Ry

     iteration #  5     ecut=    70.00 Ry     beta= 0.20
     Davidson diagonalization with overlap
     ethr =  1.74E-03,  avg # of iterations =  2.0

     total cpu time spent up to now is      110.0 secs

     total energy              =    -225.50129675 Ry
     estimated scf accuracy    <       0.09096917 Ry

     iteration #  6     ecut=    70.00 Ry     beta= 0.20
     Davidson diagonalization with overlap
     ethr =  5.05E-04,  avg # of iterations =  2.8

     total cpu time spent up to now is      111.6 secs

     total energy              =    -225.46419771 Ry
     estimated scf accuracy    <       0.12364633 Ry

     iteration #  7     ecut=    70.00 Ry     beta= 0.20
     Davidson diagonalization with overlap
     ethr =  5.05E-04,  avg # of iterations =  1.9

     total cpu time spent up to now is      113.0 secs

     total energy              =    -225.45627480 Ry
     estimated scf accuracy    <       0.01455225 Ry

     iteration #  8     ecut=    70.00 Ry     beta= 0.20
     Davidson diagonalization with overlap
     ethr =  8.08E-05,  avg # of iterations =  3.3

     total cpu time spent up to now is      115.3 secs

     total energy              =    -225.46962780 Ry
     estimated scf accuracy    <       0.09139006 Ry

     iteration #  9     ecut=    70.00 Ry     beta= 0.20
     Davidson diagonalization with overlap
     ethr =  8.08E-05,  avg # of iterations =  1.9

     total cpu time spent up to now is      116.8 secs

     total energy              =    -225.45830700 Ry
     estimated scf accuracy    <       0.03530783 Ry

     iteration # 10     ecut=    70.00 Ry     beta= 0.20
     Davidson diagonalization with overlap
     ethr =  8.08E-05,  avg # of iterations =  2.8

     total cpu time spent up to now is      118.6 secs

     total energy              =    -225.46513948 Ry
     estimated scf accuracy    <       0.00015939 Ry

     iteration # 11     ecut=    70.00 Ry     beta= 0.20
     Davidson diagonalization with overlap
     ethr =  8.85E-07,  avg # of iterations =  2.6

     total cpu time spent up to now is      120.3 secs

     total energy              =    -225.46514509 Ry
     estimated scf accuracy    <       0.00024441 Ry

     iteration # 12     ecut=    70.00 Ry     beta= 0.20
     Davidson diagonalization with overlap
     ethr =  8.85E-07,  avg # of iterations =  1.0

     total cpu time spent up to now is      121.6 secs

     total energy              =    -225.46507896 Ry
     estimated scf accuracy    <       0.00017190 Ry

     iteration # 13     ecut=    70.00 Ry     beta= 0.20
     Davidson diagonalization with overlap
     ethr =  8.85E-07,  avg # of iterations =  2.1

     total cpu time spent up to now is      123.1 secs

     total energy              =    -225.46510340 Ry
     estimated scf accuracy    <       0.00002283 Ry

     iteration # 14     ecut=    70.00 Ry     beta= 0.20
     Davidson diagonalization with overlap
     ethr =  1.27E-07,  avg # of iterations =  2.9

     total cpu time spent up to now is      124.8 secs

     total energy              =    -225.46511177 Ry
     estimated scf accuracy    <       0.00003617 Ry

     iteration # 15     ecut=    70.00 Ry     beta= 0.20
     Davidson diagonalization with overlap
     ethr =  1.27E-07,  avg # of iterations =  1.0

     total cpu time spent up to now is      126.1 secs

     total energy              =    -225.46510535 Ry
     estimated scf accuracy    <       0.00004298 Ry

     iteration # 16     ecut=    70.00 Ry     beta= 0.20
     Davidson diagonalization with overlap
     ethr =  1.27E-07,  avg # of iterations =  1.0

     total cpu time spent up to now is      127.5 secs

     total energy              =    -225.46509630 Ry
     estimated scf accuracy    <       0.00001950 Ry

     iteration # 17     ecut=    70.00 Ry     beta= 0.20
     Davidson diagonalization with overlap
     ethr =  1.08E-07,  avg # of iterations =  3.0

     total cpu time spent up to now is      129.2 secs

     total energy              =    -225.46510157 Ry
     estimated scf accuracy    <       0.00000857 Ry

     iteration # 18     ecut=    70.00 Ry     beta= 0.20
     Davidson diagonalization with overlap
     ethr =  4.76E-08,  avg # of iterations =  2.0

     total cpu time spent up to now is      130.7 secs

     total energy              =    -225.46510297 Ry
     estimated scf accuracy    <       0.00000004 Ry

     iteration # 19     ecut=    70.00 Ry     beta= 0.20
     Davidson diagonalization with overlap
     ethr =  1.99E-10,  avg # of iterations =  3.8

     total cpu time spent up to now is      132.8 secs

     total energy              =    -225.46510330 Ry
     estimated scf accuracy    <       0.00000037 Ry

     iteration # 20     ecut=    70.00 Ry     beta= 0.20
     Davidson diagonalization with overlap
     ethr =  1.99E-10,  avg # of iterations =  1.0

     total cpu time spent up to now is      134.1 secs

     total energy              =    -225.46510324 Ry
     estimated scf accuracy    <       0.00000024 Ry

     iteration # 21     ecut=    70.00 Ry     beta= 0.20
     Davidson diagonalization with overlap
     ethr =  1.99E-10,  avg # of iterations =  3.0

     total cpu time spent up to now is      135.8 secs

     total energy              =    -225.46510326 Ry
     estimated scf accuracy    <       0.00000003 Ry

     iteration # 22     ecut=    70.00 Ry     beta= 0.20
     Davidson diagonalization with overlap
     ethr =  1.49E-10,  avg # of iterations =  1.0

     total cpu time spent up to now is      137.2 secs

     total energy              =    -225.46510325 Ry
     estimated scf accuracy    <       0.00000001 Ry

     iteration # 23     ecut=    70.00 Ry     beta= 0.20
     Davidson diagonalization with overlap
     ethr =  6.99E-11,  avg # of iterations =  3.1

     total cpu time spent up to now is      138.9 secs

     total energy              =    -225.46510326 Ry
     estimated scf accuracy    <          1.7E-09 Ry

     iteration # 24     ecut=    70.00 Ry     beta= 0.20
     Davidson diagonalization with overlap
     ethr =  9.23E-12,  avg # of iterations =  1.2

     total cpu time spent up to now is      140.2 secs

     total energy              =    -225.46510326 Ry
     estimated scf accuracy    <          4.0E-09 Ry

     iteration # 25     ecut=    70.00 Ry     beta= 0.20
     Davidson diagonalization with overlap
     ethr =  9.23E-12,  avg # of iterations =  1.0

     total cpu time spent up to now is      141.6 secs

     total energy              =    -225.46510326 Ry
     estimated scf accuracy    <          1.7E-09 Ry

     iteration # 26     ecut=    70.00 Ry     beta= 0.20
     Davidson diagonalization with overlap
     ethr =  9.23E-12,  avg # of iterations =  1.1

     total cpu time spent up to now is      143.0 secs

     total energy              =    -225.46510326 Ry
     estimated scf accuracy    <          4.1E-10 Ry

     iteration # 27     ecut=    70.00 Ry     beta= 0.20
     Davidson diagonalization with overlap
     ethr =  2.26E-12,  avg # of iterations =  3.0

     total cpu time spent up to now is      144.6 secs

     total energy              =    -225.46510326 Ry
     estimated scf accuracy    <          1.2E-10 Ry

     iteration # 28     ecut=    70.00 Ry     beta= 0.20
     Davidson diagonalization with overlap
     ethr =  6.86E-13,  avg # of iterations =  1.0

     total cpu time spent up to now is      146.0 secs

     total energy              =    -225.46510326 Ry
     estimated scf accuracy    <          1.6E-10 Ry

     iteration # 29     ecut=    70.00 Ry     beta= 0.20
     Davidson diagonalization with overlap
     ethr =  6.86E-13,  avg # of iterations =  1.0

     total cpu time spent up to now is      147.3 secs

     total energy              =    -225.46510326 Ry
     estimated scf accuracy    <          1.4E-10 Ry

     iteration # 30     ecut=    70.00 Ry     beta= 0.20
     Davidson diagonalization with overlap
     ethr =  6.86E-13,  avg # of iterations =  1.0

     total cpu time spent up to now is      148.7 secs

     total energy              =    -225.46510326 Ry
     estimated scf accuracy    <          1.3E-10 Ry

     iteration # 31     ecut=    70.00 Ry     beta= 0.20
     Davidson diagonalization with overlap
     ethr =  6.86E-13,  avg # of iterations =  1.0

     total cpu time spent up to now is      150.0 secs

     total energy              =    -225.46510326 Ry
     estimated scf accuracy    <          1.6E-10 Ry

     iteration # 32     ecut=    70.00 Ry     beta= 0.20
     Davidson diagonalization with overlap
     ethr =  6.86E-13,  avg # of iterations =  1.0

     total cpu time spent up to now is      151.4 secs

     total energy              =    -225.46510326 Ry
     estimated scf accuracy    <          1.3E-10 Ry

     iteration # 33     ecut=    70.00 Ry     beta= 0.20
     Davidson diagonalization with overlap
     ethr =  6.86E-13,  avg # of iterations =  1.0

     total cpu time spent up to now is      152.7 secs

     total energy              =    -225.46510326 Ry
     estimated scf accuracy    <          2.2E-10 Ry

     iteration # 34     ecut=    70.00 Ry     beta= 0.20
     Davidson diagonalization with overlap
     ethr =  6.86E-13,  avg # of iterations =  1.0

     total cpu time spent up to now is      154.1 secs

     total energy              =    -225.46510326 Ry
     estimated scf accuracy    <          1.5E-10 Ry

     iteration # 35     ecut=    70.00 Ry     beta= 0.20
     Davidson diagonalization with overlap
     ethr =  6.86E-13,  avg # of iterations =  1.0

     total cpu time spent up to now is      155.4 secs

     total energy              =    -225.46510326 Ry
     estimated scf accuracy    <          2.0E-10 Ry

     iteration # 36     ecut=    70.00 Ry     beta= 0.20
     Davidson diagonalization with overlap
     ethr =  6.86E-13,  avg # of iterations =  3.0

     total cpu time spent up to now is      157.1 secs

     total energy              =    -225.46510326 Ry
     estimated scf accuracy    <          1.8E-11 Ry

     iteration # 37     ecut=    70.00 Ry     beta= 0.20
     Davidson diagonalization with overlap
     ethr =  1.01E-13,  avg # of iterations =  3.0

     total cpu time spent up to now is      158.9 secs

     total energy              =    -225.46510326 Ry
     estimated scf accuracy    <          3.6E-11 Ry

     iteration # 38     ecut=    70.00 Ry     beta= 0.20
     Davidson diagonalization with overlap
     ethr =  1.01E-13,  avg # of iterations =  3.0

     total cpu time spent up to now is      160.6 secs

     total energy              =    -225.46510326 Ry
     estimated scf accuracy    <          1.1E-13 Ry

     iteration # 39     ecut=    70.00 Ry     beta= 0.20
     Davidson diagonalization with overlap
     ethr =  1.00E-13,  avg # of iterations =  1.1

     total cpu time spent up to now is      161.9 secs

     total energy              =    -225.46510326 Ry
     estimated scf accuracy    <          4.9E-13 Ry

     iteration # 40     ecut=    70.00 Ry     beta= 0.20
     Davidson diagonalization with overlap
     ethr =  1.00E-13,  avg # of iterations =  1.0

     total cpu time spent up to now is      163.3 secs

     total energy              =    -225.46510326 Ry
     estimated scf accuracy    <          2.6E-14 Ry

     iteration # 41     ecut=    70.00 Ry     beta= 0.20
     Davidson diagonalization with overlap
     ethr =  1.00E-13,  avg # of iterations =  1.0

     total cpu time spent up to now is      164.6 secs

     End of self-consistent calculation

     Number of k-points >= 100: set verbosity='high' to print the bands.

     the Fermi energy is    15.0767 ev

!    total energy              =    -225.46510326 Ry
     total all-electron energy =     -1858.234903 Ry
     estimated scf accuracy    <          3.3E-16 Ry
     smearing contrib. (-TS)   =       0.00072683 Ry
     internal energy E=F+TS    =    -225.46583009 Ry

     The total energy is F=E-TS. E is the sum of the following terms:
     one-electron contribution =     -35.20269756 Ry
     hartree contribution      =      28.31876536 Ry
     xc contribution           =     -26.11165646 Ry
     ewald contribution        =    -117.57060961 Ry
     one-center paw contrib.   =     -74.89963182 Ry

     convergence has been achieved in  41 iterations

     Forces acting on atoms (cartesian axes, Ry/au):

     atom    1 type  1   force =    -0.00000000   -0.00000000    0.00000000
     atom    2 type  2   force =    -0.00000000    0.00000000   -0.00000000
     The non-local contrib.  to forces
     atom    1 type  1   force =     0.00000000    0.00000000    0.00000000
     atom    2 type  2   force =     0.00000000   -0.00000000    0.00000000
     The ionic contribution  to forces
     atom    1 type  1   force =    -0.00000000    0.00000000   -0.00000000
     atom    2 type  2   force =     0.00000000   -0.00000000    0.00000000
     The local contribution  to forces
     atom    1 type  1   force =    -0.00000000   -0.00000000    0.00000000
     atom    2 type  2   force =    -0.00000000   -0.00000000    0.00000000
     The core correction contribution to forces
     atom    1 type  1   force =    -0.00000000    0.00000000    0.00000000
     atom    2 type  2   force =    -0.00000000    0.00000000   -0.00000000
     The Hubbard contrib.    to forces
     atom    1 type  1   force =     0.00000000    0.00000000    0.00000000
     atom    2 type  2   force =     0.00000000    0.00000000    0.00000000
     The SCF correction term to forces
     atom    1 type  1   force =     0.00000000    0.00000000   -0.00000000
     atom    2 type  2   force =     0.00000000    0.00000000    0.00000000

     Total force =     0.000000     Total SCF correction =     0.000000


     Computing stress (Cartesian axis) and pressure

          total   stress  (Ry/bohr**3)                   (kbar)     P=      -42.38
  -0.00028813  -0.00072358   0.00072358          -42.38     -106.44      106.44
  -0.00072358  -0.00028813  -0.00072358         -106.44      -42.38     -106.44
   0.00072358  -0.00072358  -0.00028813          106.44     -106.44      -42.38

     Energy error            =      2.6E-03 Ry
     Gradient error          =      1.0E-28 Ry/Bohr
     Cell gradient error     =      1.1E+02 kbar

     number of scf cycles    =  24
     number of bfgs steps    =  22

     enthalpy           old  =    -225.4625342563 Ry
     enthalpy           new  =    -225.4651032564 Ry

     CASE: enthalpy          _new < enthalpy          _old


     WARNING: info=  8 for Hessian
     uphill step: resetting bfgs history

     new trust radius        =       0.0643055123 bohr
WARNING! With ibrav=0, cell_dofree='ibrav' has no effect. 
     new conv_thr            =            1.0E-14 Ry

     new unit-cell volume =    143.07619 a.u.^3 (    21.20170 Ang^3 )
     density =      5.00205 g/cm^3

CELL_PARAMETERS (alat= 11.46323974)
   0.294977193   0.196115034   0.294977193
   0.196115034   0.294977193  -0.294977193
  -0.294977193   0.294977193   0.196115034

ATOMIC_POSITIONS (crystal)
Ti            0.0000000000       -0.0000000000       -0.0000000000
O             0.5000000000        0.5000000000        0.5000000000



     Writing config-only to output data dir ./tmp/TiO.save/
     NEW-OLD atomic charge density approx. for the potential

     Check: negative core charge=   -0.000002
     extrapolated charge   17.58728, renormalised to   18.00000

     total cpu time spent up to now is      166.6 secs

     Self-consistent Calculation

     iteration #  1     ecut=    70.00 Ry     beta= 0.20
     Davidson diagonalization with overlap
     ethr =  1.00E-06,  avg # of iterations =  4.9

     total cpu time spent up to now is      169.7 secs

     total energy              =    -225.45573501 Ry
     estimated scf accuracy    <       0.02243885 Ry

     iteration #  2     ecut=    70.00 Ry     beta= 0.20
     Davidson diagonalization with overlap
     ethr =  1.25E-04,  avg # of iterations =  3.0

     total cpu time spent up to now is      171.8 secs

     total energy              =    -225.47907922 Ry
     estimated scf accuracy    <       0.00489522 Ry

     iteration #  3     ecut=    70.00 Ry     beta= 0.20
     Davidson diagonalization with overlap
     ethr =  2.72E-05,  avg # of iterations =  1.0

     total cpu time spent up to now is      173.2 secs

     total energy              =    -225.47756003 Ry
     estimated scf accuracy    <       0.00264414 Ry

     iteration #  4     ecut=    70.00 Ry     beta= 0.20
     Davidson diagonalization with overlap
     ethr =  1.47E-05,  avg # of iterations =  2.1

     total cpu time spent up to now is      174.8 secs

     total energy              =    -225.47799274 Ry
     estimated scf accuracy    <       0.00009923 Ry

     iteration #  5     ecut=    70.00 Ry     beta= 0.20
     Davidson diagonalization with overlap
     ethr =  5.51E-07,  avg # of iterations =  3.0

     total cpu time spent up to now is      177.0 secs

     total energy              =    -225.47811784 Ry
     estimated scf accuracy    <       0.00072257 Ry

     iteration #  6     ecut=    70.00 Ry     beta= 0.20
     Davidson diagonalization with overlap
     ethr =  5.51E-07,  avg # of iterations =  1.9

     total cpu time spent up to now is      178.5 secs

     total energy              =    -225.47791188 Ry
     estimated scf accuracy    <       0.00042950 Ry

     iteration #  7     ecut=    70.00 Ry     beta= 0.20
     Davidson diagonalization with overlap
     ethr =  5.51E-07,  avg # of iterations =  3.0

     total cpu time spent up to now is      180.4 secs

     total energy              =    -225.47796168 Ry
     estimated scf accuracy    <       0.00002918 Ry

     iteration #  8     ecut=    70.00 Ry     beta= 0.20
     Davidson diagonalization with overlap
     ethr =  1.62E-07,  avg # of iterations =  2.4

     total cpu time spent up to now is      182.1 secs

     total energy              =    -225.47797512 Ry
     estimated scf accuracy    <       0.00000591 Ry

     iteration #  9     ecut=    70.00 Ry     beta= 0.20
     Davidson diagonalization with overlap
     ethr =  3.28E-08,  avg # of iterations =  1.9

     total cpu time spent up to now is      183.6 secs

     total energy              =    -225.47796820 Ry
     estimated scf accuracy    <       0.00001277 Ry

     iteration # 10     ecut=    70.00 Ry     beta= 0.20
     Davidson diagonalization with overlap
     ethr =  3.28E-08,  avg # of iterations =  2.9

     total cpu time spent up to now is      185.4 secs

     total energy              =    -225.47797022 Ry
     estimated scf accuracy    <       0.00000015 Ry

     iteration # 11     ecut=    70.00 Ry     beta= 0.20
     Davidson diagonalization with overlap
     ethr =  8.12E-10,  avg # of iterations =  3.6

     total cpu time spent up to now is      187.3 secs

     total energy              =    -225.47797026 Ry
     estimated scf accuracy    <       0.00000001 Ry

     iteration # 12     ecut=    70.00 Ry     beta= 0.20
     Davidson diagonalization with overlap
     ethr =  7.41E-11,  avg # of iterations =  3.4

     total cpu time spent up to now is      188.9 secs

     total energy              =    -225.47797027 Ry
     estimated scf accuracy    <          9.4E-11 Ry

     iteration # 13     ecut=    70.00 Ry     beta= 0.20
     Davidson diagonalization with overlap
     ethr =  5.21E-13,  avg # of iterations =  4.0

     total cpu time spent up to now is      191.0 secs

     total energy              =    -225.47797027 Ry
     estimated scf accuracy    <          4.6E-10 Ry

     iteration # 14     ecut=    70.00 Ry     beta= 0.20
     Davidson diagonalization with overlap
     ethr =  5.21E-13,  avg # of iterations =  3.0

     total cpu time spent up to now is      192.6 secs

     total energy              =    -225.47797027 Ry
     estimated scf accuracy    <          1.9E-10 Ry

     iteration # 15     ecut=    70.00 Ry     beta= 0.20
     Davidson diagonalization with overlap
     ethr =  5.21E-13,  avg # of iterations =  3.1

     total cpu time spent up to now is      194.3 secs

     total energy              =    -225.47797027 Ry
     estimated scf accuracy    <          8.6E-13 Ry

     iteration # 16     ecut=    70.00 Ry     beta= 0.20
     Davidson diagonalization with overlap
     ethr =  1.00E-13,  avg # of iterations =  1.7

     total cpu time spent up to now is      195.7 secs

     total energy              =    -225.47797027 Ry
     estimated scf accuracy    <          1.1E-13 Ry

     iteration # 17     ecut=    70.00 Ry     beta= 0.20
     Davidson diagonalization with overlap
     ethr =  1.00E-13,  avg # of iterations =  1.0

     total cpu time spent up to now is      197.1 secs

     total energy              =    -225.47797027 Ry
     estimated scf accuracy    <          6.7E-13 Ry

     iteration # 18     ecut=    70.00 Ry     beta= 0.20
     Davidson diagonalization with overlap
     ethr =  1.00E-13,  avg # of iterations =  1.0

     total cpu time spent up to now is      198.4 secs

     total energy              =    -225.47797027 Ry
     estimated scf accuracy    <          1.6E-13 Ry

     iteration # 19     ecut=    70.00 Ry     beta= 0.20
     Davidson diagonalization with overlap
     ethr =  1.00E-13,  avg # of iterations =  1.0

     total cpu time spent up to now is      199.8 secs

     total energy              =    -225.47797027 Ry
     estimated scf accuracy    <          2.0E-13 Ry

     iteration # 20     ecut=    70.00 Ry     beta= 0.20
     Davidson diagonalization with overlap
     ethr =  1.00E-13,  avg # of iterations =  1.0

     total cpu time spent up to now is      201.1 secs

     total energy              =    -225.47797027 Ry
     estimated scf accuracy    <          3.0E-14 Ry

     iteration # 21     ecut=    70.00 Ry     beta= 0.20
     Davidson diagonalization with overlap
     ethr =  1.00E-13,  avg # of iterations =  1.0

     total cpu time spent up to now is      202.5 secs

     End of self-consistent calculation

     Number of k-points >= 100: set verbosity='high' to print the bands.

     the Fermi energy is    15.4440 ev

!    total energy              =    -225.47797027 Ry
     total all-electron energy =     -1858.247771 Ry
     estimated scf accuracy    <          6.3E-16 Ry
     smearing contrib. (-TS)   =       0.00085628 Ry
     internal energy E=F+TS    =    -225.47882654 Ry

     The total energy is F=E-TS. E is the sum of the following terms:
     one-electron contribution =     -32.96212533 Ry
     hartree contribution      =      27.45328855 Ry
     xc contribution           =     -26.11703080 Ry
     ewald contribution        =    -118.95606530 Ry
     one-center paw contrib.   =     -74.89689367 Ry

     convergence has been achieved in  21 iterations

     Forces acting on atoms (cartesian axes, Ry/au):

     atom    1 type  1   force =    -0.00000000   -0.00000000    0.00000000
     atom    2 type  2   force =    -0.00000000   -0.00000000   -0.00000000
     The non-local contrib.  to forces
     atom    1 type  1   force =    -0.00000000   -0.00000000    0.00000000
     atom    2 type  2   force =     0.00000000    0.00000000   -0.00000000
     The ionic contribution  to forces
     atom    1 type  1   force =    -0.00000000    0.00000000   -0.00000000
     atom    2 type  2   force =     0.00000000   -0.00000000    0.00000000
     The local contribution  to forces
     atom    1 type  1   force =    -0.00000000   -0.00000000    0.00000000
     atom    2 type  2   force =    -0.00000000   -0.00000000    0.00000000
     The core correction contribution to forces
     atom    1 type  1   force =     0.00000000    0.00000000   -0.00000000
     atom    2 type  2   force =    -0.00000000    0.00000000   -0.00000000
     The Hubbard contrib.    to forces
     atom    1 type  1   force =     0.00000000    0.00000000    0.00000000
     atom    2 type  2   force =     0.00000000    0.00000000    0.00000000
     The SCF correction term to forces
     atom    1 type  1   force =     0.00000000   -0.00000000   -0.00000000
     atom    2 type  2   force =     0.00000000   -0.00000000   -0.00000000

     Total force =     0.000000     Total SCF correction =     0.000000


     Computing stress (Cartesian axis) and pressure

          total   stress  (Ry/bohr**3)                   (kbar)     P=      -90.31
  -0.00061392  -0.00069471   0.00069471          -90.31     -102.20      102.20
  -0.00069471  -0.00061392  -0.00069471         -102.20      -90.31     -102.20
   0.00069471  -0.00069471  -0.00061392          102.20     -102.20      -90.31

     Energy error            =      1.3E-02 Ry
     Gradient error          =      6.0E-29 Ry/Bohr
     Cell gradient error     =      1.0E+02 kbar

     number of scf cycles    =  25
     number of bfgs steps    =  23

     enthalpy           old  =    -225.4651032564 Ry
     enthalpy           new  =    -225.4779702664 Ry

     CASE: enthalpy          _new < enthalpy          _old


     WARNING: bfgs curvature condition failed, Theta= 0.773
     new trust radius        =       0.0958343548 bohr
WARNING! With ibrav=0, cell_dofree='ibrav' has no effect. 
     new conv_thr            =            1.0E-14 Ry

     new unit-cell volume =    139.41785 a.u.^3 (    20.65959 Ang^3 )
     density =      5.13330 g/cm^3

CELL_PARAMETERS (alat= 11.46323974)
   0.295413035   0.178190128   0.295413035
   0.178190128   0.295413035  -0.295413035
  -0.295413035   0.295413035   0.178190128

ATOMIC_POSITIONS (crystal)
Ti            0.0000000000       -0.0000000000       -0.0000000000
O             0.5000000000        0.5000000000        0.5000000000



     Writing config-only to output data dir ./tmp/TiO.save/
     NEW-OLD atomic charge density approx. for the potential

     Check: negative core charge=   -0.000002
     extrapolated charge   17.52772, renormalised to   18.00000

     total cpu time spent up to now is      204.5 secs

     Self-consistent Calculation

     iteration #  1     ecut=    70.00 Ry     beta= 0.20
     Davidson diagonalization with overlap
     ethr =  1.00E-06,  avg # of iterations =  5.1

     total cpu time spent up to now is      207.6 secs

     total energy              =    -225.46728859 Ry
     estimated scf accuracy    <       0.02731806 Ry

     iteration #  2     ecut=    70.00 Ry     beta= 0.20
     Davidson diagonalization with overlap
     ethr =  1.52E-04,  avg # of iterations =  3.0

     total cpu time spent up to now is      209.8 secs

     total energy              =    -225.49574237 Ry
     estimated scf accuracy    <       0.00582265 Ry

     iteration #  3     ecut=    70.00 Ry     beta= 0.20
     Davidson diagonalization with overlap
     ethr =  3.23E-05,  avg # of iterations =  1.0

     total cpu time spent up to now is      211.1 secs

     total energy              =    -225.49364013 Ry
     estimated scf accuracy    <       0.00317701 Ry

     iteration #  4     ecut=    70.00 Ry     beta= 0.20
     Davidson diagonalization with overlap
     ethr =  1.77E-05,  avg # of iterations =  2.7

     total cpu time spent up to now is      212.9 secs

     total energy              =    -225.49465129 Ry
     estimated scf accuracy    <       0.00011917 Ry

     iteration #  5     ecut=    70.00 Ry     beta= 0.20
     Davidson diagonalization with overlap
     ethr =  6.62E-07,  avg # of iterations =  3.0

     total cpu time spent up to now is      215.1 secs

     total energy              =    -225.49434546 Ry
     estimated scf accuracy    <       0.00094819 Ry

     iteration #  6     ecut=    70.00 Ry     beta= 0.20
     Davidson diagonalization with overlap
     ethr =  6.62E-07,  avg # of iterations =  3.0

     total cpu time spent up to now is      217.2 secs

     total energy              =    -225.49440128 Ry
     estimated scf accuracy    <       0.00007146 Ry

     iteration #  7     ecut=    70.00 Ry     beta= 0.20
     Davidson diagonalization with overlap
     ethr =  3.97E-07,  avg # of iterations =  3.0

     total cpu time spent up to now is      219.0 secs

     total energy              =    -225.49442993 Ry
     estimated scf accuracy    <       0.00000959 Ry

     iteration #  8     ecut=    70.00 Ry     beta= 0.20
     Davidson diagonalization with overlap
     ethr =  5.33E-08,  avg # of iterations =  1.7

     total cpu time spent up to now is      220.4 secs

     total energy              =    -225.49442206 Ry
     estimated scf accuracy    <       0.00001408 Ry

     iteration #  9     ecut=    70.00 Ry     beta= 0.20
     Davidson diagonalization with overlap
     ethr =  5.33E-08,  avg # of iterations =  2.3

     total cpu time spent up to now is      222.0 secs

     total energy              =    -225.49442431 Ry
     estimated scf accuracy    <       0.00000030 Ry

     iteration # 10     ecut=    70.00 Ry     beta= 0.20
     Davidson diagonalization with overlap
     ethr =  1.65E-09,  avg # of iterations =  3.5

     total cpu time spent up to now is      223.7 secs

     total energy              =    -225.49442435 Ry
     estimated scf accuracy    <       0.00000022 Ry

     iteration # 11     ecut=    70.00 Ry     beta= 0.20
     Davidson diagonalization with overlap
     ethr =  1.22E-09,  avg # of iterations =  2.2

     total cpu time spent up to now is      225.3 secs

     total energy              =    -225.49442440 Ry
     estimated scf accuracy    <          9.9E-09 Ry

     iteration # 12     ecut=    70.00 Ry     beta= 0.20
     Davidson diagonalization with overlap
     ethr =  5.50E-11,  avg # of iterations =  2.9

     total cpu time spent up to now is      227.0 secs

     total energy              =    -225.49442440 Ry
     estimated scf accuracy    <          4.9E-11 Ry

     iteration # 13     ecut=    70.00 Ry     beta= 0.20
     Davidson diagonalization with overlap
     ethr =  2.70E-13,  avg # of iterations =  3.9

     total cpu time spent up to now is      229.0 secs

     total energy              =    -225.49442440 Ry
     estimated scf accuracy    <          4.2E-10 Ry

     iteration # 14     ecut=    70.00 Ry     beta= 0.20
     Davidson diagonalization with overlap
     ethr =  2.70E-13,  avg # of iterations =  3.2

     total cpu time spent up to now is      230.9 secs

     total energy              =    -225.49442440 Ry
     estimated scf accuracy    <          7.2E-11 Ry

     iteration # 15     ecut=    70.00 Ry     beta= 0.20
     Davidson diagonalization with overlap
     ethr =  2.70E-13,  avg # of iterations =  3.0

     total cpu time spent up to now is      232.6 secs

     total energy              =    -225.49442440 Ry
     estimated scf accuracy    <          1.2E-10 Ry

     iteration # 16     ecut=    70.00 Ry     beta= 0.20
     Davidson diagonalization with overlap
     ethr =  2.70E-13,  avg # of iterations =  1.0

     total cpu time spent up to now is      233.9 secs

     total energy              =    -225.49442440 Ry
     estimated scf accuracy    <          1.1E-10 Ry

     iteration # 17     ecut=    70.00 Ry     beta= 0.20
     Davidson diagonalization with overlap
     ethr =  2.70E-13,  avg # of iterations =  1.0

     total cpu time spent up to now is      235.3 secs

     total energy              =    -225.49442440 Ry
     estimated scf accuracy    <          5.5E-11 Ry

     iteration # 18     ecut=    70.00 Ry     beta= 0.20
     Davidson diagonalization with overlap
     ethr =  2.70E-13,  avg # of iterations =  2.7

     total cpu time spent up to now is      236.8 secs

     total energy              =    -225.49442440 Ry
     estimated scf accuracy    <          1.2E-11 Ry

     iteration # 19     ecut=    70.00 Ry     beta= 0.20
     Davidson diagonalization with overlap
     ethr =  1.00E-13,  avg # of iterations =  2.5

     total cpu time spent up to now is      238.3 secs

     total energy              =    -225.49442440 Ry
     estimated scf accuracy    <          1.1E-12 Ry

     iteration # 20     ecut=    70.00 Ry     beta= 0.20
     Davidson diagonalization with overlap
     ethr =  1.00E-13,  avg # of iterations =  1.8

     total cpu time spent up to now is      239.8 secs

     total energy              =    -225.49442440 Ry
     estimated scf accuracy    <          8.2E-14 Ry

     iteration # 21     ecut=    70.00 Ry     beta= 0.20
     Davidson diagonalization with overlap
     ethr =  1.00E-13,  avg # of iterations =  1.0

     total cpu time spent up to now is      241.1 secs

     total energy              =    -225.49442440 Ry
     estimated scf accuracy    <          1.4E-14 Ry

     iteration # 22     ecut=    70.00 Ry     beta= 0.20
     Davidson diagonalization with overlap
     ethr =  1.00E-13,  avg # of iterations =  1.0

     total cpu time spent up to now is      242.5 secs

     End of self-consistent calculation

     Number of k-points >= 100: set verbosity='high' to print the bands.

     the Fermi energy is    15.9233 ev

!    total energy              =    -225.49442440 Ry
     total all-electron energy =     -1858.264225 Ry
     estimated scf accuracy    <          7.3E-16 Ry
     smearing contrib. (-TS)   =       0.00066167 Ry
     internal energy E=F+TS    =    -225.49508607 Ry

     The total energy is F=E-TS. E is the sum of the following terms:
     one-electron contribution =     -30.49450373 Ry
     hartree contribution      =      26.50339302 Ry
     xc contribution           =     -26.12187922 Ry
     ewald contribution        =    -120.48758503 Ry
     one-center paw contrib.   =     -74.89451111 Ry

     convergence has been achieved in  22 iterations

     Forces acting on atoms (cartesian axes, Ry/au):

     atom    1 type  1   force =    -0.00000000   -0.00000000   -0.00000000
     atom    2 type  2   force =    -0.00000000   -0.00000000    0.00000000
     The non-local contrib.  to forces
     atom    1 type  1   force =     0.00000000    0.00000000    0.00000000
     atom    2 type  2   force =     0.00000000    0.00000000   -0.00000000
     The ionic contribution  to forces
     atom    1 type  1   force =    -0.00000000    0.00000000   -0.00000000
     atom    2 type  2   force =     0.00000000   -0.00000000    0.00000000
     The local contribution  to forces
     atom    1 type  1   force =    -0.00000000    0.00000000    0.00000000
     atom    2 type  2   force =    -0.00000000   -0.00000000    0.00000000
     The core correction contribution to forces
     atom    1 type  1   force =     0.00000000    0.00000000   -0.00000000
     atom    2 type  2   force =    -0.00000000    0.00000000   -0.00000000
     The Hubbard contrib.    to forces
     atom    1 type  1   force =     0.00000000    0.00000000    0.00000000
     atom    2 type  2   force =     0.00000000    0.00000000    0.00000000
     The SCF correction term to forces
     atom    1 type  1   force =    -0.00000000    0.00000000   -0.00000000
     atom    2 type  2   force =     0.00000000   -0.00000000    0.00000000

     Total force =     0.000000     Total SCF correction =     0.000000


     Computing stress (Cartesian axis) and pressure

          total   stress  (Ry/bohr**3)                   (kbar)     P=     -140.78
  -0.00095702  -0.00041759   0.00041759         -140.78      -61.43       61.43
  -0.00041759  -0.00095702  -0.00041759          -61.43     -140.78      -61.43
   0.00041759  -0.00041759  -0.00095702           61.43      -61.43     -140.78

     Energy error            =      1.6E-02 Ry
     Gradient error          =      1.0E-28 Ry/Bohr
     Cell gradient error     =      1.4E+02 kbar

     number of scf cycles    =  26
     number of bfgs steps    =  24

     enthalpy           old  =    -225.4779702664 Ry
     enthalpy           new  =    -225.4944244020 Ry

     CASE: enthalpy          _new < enthalpy          _old

     new trust radius        =       0.1417248616 bohr
WARNING! With ibrav=0, cell_dofree='ibrav' has no effect. 
     new conv_thr            =            1.0E-14 Ry

     new unit-cell volume =    130.77721 a.u.^3 (    19.37918 Ang^3 )
     density =      5.47247 g/cm^3

CELL_PARAMETERS (alat= 11.46323974)
   0.294356994   0.151003099   0.294356994
   0.151003099   0.294356994  -0.294356994
  -0.294356994   0.294356994   0.151003099

ATOMIC_POSITIONS (crystal)
Ti            0.0000000000       -0.0000000000       -0.0000000000
O             0.5000000000        0.5000000000        0.5000000000



     Writing config-only to output data dir ./tmp/TiO.save/
     NEW-OLD atomic charge density approx. for the potential

     Check: negative core charge=   -0.000002
     extrapolated charge   16.81081, renormalised to   18.00000

     total cpu time spent up to now is      244.5 secs

     Self-consistent Calculation

     iteration #  1     ecut=    70.00 Ry     beta= 0.20
     Davidson diagonalization with overlap
     ethr =  1.00E-06,  avg # of iterations =  5.1

     total cpu time spent up to now is      247.7 secs

     total energy              =    -225.33788229 Ry
     estimated scf accuracy    <       0.18026043 Ry

     iteration #  2     ecut=    70.00 Ry     beta= 0.20
     Davidson diagonalization with overlap
     ethr =  1.00E-03,  avg # of iterations =  3.0

     total cpu time spent up to now is      249.8 secs

     total energy              =    -225.51466550 Ry
     estimated scf accuracy    <       0.02737271 Ry

     iteration #  3     ecut=    70.00 Ry     beta= 0.20
     Davidson diagonalization with overlap
     ethr =  1.52E-04,  avg # of iterations =  1.0

     total cpu time spent up to now is      251.2 secs

     total energy              =    -225.51259031 Ry
     estimated scf accuracy    <       0.01229755 Ry

     iteration #  4     ecut=    70.00 Ry     beta= 0.20
     Davidson diagonalization with overlap
     ethr =  6.83E-05,  avg # of iterations =  1.0

     total cpu time spent up to now is      252.5 secs

     total energy              =    -225.50611819 Ry
     estimated scf accuracy    <       0.00686291 Ry

     iteration #  5     ecut=    70.00 Ry     beta= 0.20
     Davidson diagonalization with overlap
     ethr =  3.81E-05,  avg # of iterations =  3.1

     total cpu time spent up to now is      254.6 secs

     total energy              =    -225.50943685 Ry
     estimated scf accuracy    <       0.00158605 Ry

     iteration #  6     ecut=    70.00 Ry     beta= 0.20
     Davidson diagonalization with overlap
     ethr =  8.81E-06,  avg # of iterations =  1.1

     total cpu time spent up to now is      255.9 secs

     total energy              =    -225.50870166 Ry
     estimated scf accuracy    <       0.00139941 Ry

     iteration #  7     ecut=    70.00 Ry     beta= 0.20
     Davidson diagonalization with overlap
     ethr =  7.77E-06,  avg # of iterations =  2.0

     total cpu time spent up to now is      257.5 secs

     total energy              =    -225.50883738 Ry
     estimated scf accuracy    <       0.00007502 Ry

     iteration #  8     ecut=    70.00 Ry     beta= 0.20
     Davidson diagonalization with overlap
     ethr =  4.17E-07,  avg # of iterations =  3.1

     total cpu time spent up to now is      259.4 secs

     total energy              =    -225.50891023 Ry
     estimated scf accuracy    <       0.00001530 Ry

     iteration #  9     ecut=    70.00 Ry     beta= 0.20
     Davidson diagonalization with overlap
     ethr =  8.50E-08,  avg # of iterations =  2.5

     total cpu time spent up to now is      261.1 secs

     total energy              =    -225.50887166 Ry
     estimated scf accuracy    <       0.00008120 Ry

     iteration # 10     ecut=    70.00 Ry     beta= 0.20
     Davidson diagonalization with overlap
     ethr =  8.50E-08,  avg # of iterations =  3.0

     total cpu time spent up to now is      262.9 secs

     total energy              =    -225.50888224 Ry
     estimated scf accuracy    <       0.00000362 Ry

     iteration # 11     ecut=    70.00 Ry     beta= 0.20
     Davidson diagonalization with overlap
     ethr =  2.01E-08,  avg # of iterations =  2.5

     total cpu time spent up to now is      264.5 secs

     total energy              =    -225.50888268 Ry
     estimated scf accuracy    <       0.00000014 Ry

     iteration # 12     ecut=    70.00 Ry     beta= 0.20
     Davidson diagonalization with overlap
     ethr =  8.03E-10,  avg # of iterations =  3.8

     total cpu time spent up to now is      266.4 secs

     total energy              =    -225.50888290 Ry
     estimated scf accuracy    <       0.00000002 Ry

     iteration # 13     ecut=    70.00 Ry     beta= 0.20
     Davidson diagonalization with overlap
     ethr =  9.36E-11,  avg # of iterations =  1.9

     total cpu time spent up to now is      267.9 secs

     total energy              =    -225.50888290 Ry
     estimated scf accuracy    <       0.00000002 Ry

     iteration # 14     ecut=    70.00 Ry     beta= 0.20
     Davidson diagonalization with overlap
     ethr =  9.36E-11,  avg # of iterations =  1.0

     total cpu time spent up to now is      269.2 secs

     total energy              =    -225.50888289 Ry
     estimated scf accuracy    <       0.00000002 Ry

     iteration # 15     ecut=    70.00 Ry     beta= 0.20
     Davidson diagonalization with overlap
     ethr =  9.36E-11,  avg # of iterations =  1.0

     total cpu time spent up to now is      270.6 secs

     total energy              =    -225.50888289 Ry
     estimated scf accuracy    <          8.5E-09 Ry

     iteration # 16     ecut=    70.00 Ry     beta= 0.20
     Davidson diagonalization with overlap
     ethr =  4.70E-11,  avg # of iterations =  3.1

     total cpu time spent up to now is      272.2 secs

     total energy              =    -225.50888289 Ry
     estimated scf accuracy    <          7.0E-11 Ry

     iteration # 17     ecut=    70.00 Ry     beta= 0.20
     Davidson diagonalization with overlap
     ethr =  3.91E-13,  avg # of iterations =  2.6

     total cpu time spent up to now is      273.8 secs

     total energy              =    -225.50888289 Ry
     estimated scf accuracy    <          1.8E-11 Ry

     iteration # 18     ecut=    70.00 Ry     beta= 0.20
     Davidson diagonalization with overlap
     ethr =  1.00E-13,  avg # of iterations =  2.3

     total cpu time spent up to now is      275.4 secs

     total energy              =    -225.50888289 Ry
     estimated scf accuracy    <          2.8E-11 Ry

     iteration # 19     ecut=    70.00 Ry     beta= 0.20
     Davidson diagonalization with overlap
     ethr =  1.00E-13,  avg # of iterations =  3.0

     total cpu time spent up to now is      277.1 secs

     total energy              =    -225.50888289 Ry
     estimated scf accuracy    <          9.2E-13 Ry

     iteration # 20     ecut=    70.00 Ry     beta= 0.20
     Davidson diagonalization with overlap
     ethr =  1.00E-13,  avg # of iterations =  3.4

     total cpu time spent up to now is      278.6 secs

     total energy              =    -225.50888289 Ry
     estimated scf accuracy    <          1.2E-11 Ry

     iteration # 21     ecut=    70.00 Ry     beta= 0.20
     Davidson diagonalization with overlap
     ethr =  1.00E-13,  avg # of iterations =  1.0

     total cpu time spent up to now is      280.0 secs

     total energy              =    -225.50888289 Ry
     estimated scf accuracy    <          1.3E-12 Ry

     iteration # 22     ecut=    70.00 Ry     beta= 0.20
     Davidson diagonalization with overlap
     ethr =  1.00E-13,  avg # of iterations =  1.7

     total cpu time spent up to now is      281.4 secs

     total energy              =    -225.50888289 Ry
     estimated scf accuracy    <          3.6E-14 Ry

     iteration # 23     ecut=    70.00 Ry     beta= 0.20
     Davidson diagonalization with overlap
     ethr =  1.00E-13,  avg # of iterations =  1.0

     total cpu time spent up to now is      282.7 secs

     total energy              =    -225.50888289 Ry
     estimated scf accuracy    <          4.2E-14 Ry

     iteration # 24     ecut=    70.00 Ry     beta= 0.20
     Davidson diagonalization with overlap
     ethr =  1.00E-13,  avg # of iterations =  1.0

     total cpu time spent up to now is      284.1 secs

     total energy              =    -225.50888289 Ry
     estimated scf accuracy    <          2.4E-14 Ry

     iteration # 25     ecut=    70.00 Ry     beta= 0.20
     Davidson diagonalization with overlap
     ethr =  1.00E-13,  avg # of iterations =  1.0

     total cpu time spent up to now is      285.4 secs

     End of self-consistent calculation

     Number of k-points >= 100: set verbosity='high' to print the bands.

     the Fermi energy is    17.1392 ev

!    total energy              =    -225.50888289 Ry
     total all-electron energy =     -1858.278683 Ry
     estimated scf accuracy    <          1.0E-15 Ry
     smearing contrib. (-TS)   =       0.00041731 Ry
     internal energy E=F+TS    =    -225.50930020 Ry

     The total energy is F=E-TS. E is the sum of the following terms:
     one-electron contribution =     -26.16723382 Ry
     hartree contribution      =      25.10868014 Ry
     xc contribution           =     -26.19438237 Ry
     ewald contribution        =    -123.36261097 Ry
     one-center paw contrib.   =     -74.89375318 Ry

     convergence has been achieved in  25 iterations

     Forces acting on atoms (cartesian axes, Ry/au):

     atom    1 type  1   force =    -0.00000000   -0.00000000   -0.00000000
     atom    2 type  2   force =    -0.00000000   -0.00000000   -0.00000000
     The non-local contrib.  to forces
     atom    1 type  1   force =     0.00000000    0.00000000    0.00000000
     atom    2 type  2   force =     0.00000000   -0.00000000    0.00000000
     The ionic contribution  to forces
     atom    1 type  1   force =     0.00000000    0.00000000   -0.00000000
     atom    2 type  2   force =    -0.00000000   -0.00000000    0.00000000
     The local contribution  to forces
     atom    1 type  1   force =     0.00000000   -0.00000000    0.00000000
     atom    2 type  2   force =    -0.00000000   -0.00000000    0.00000000
     The core correction contribution to forces
     atom    1 type  1   force =     0.00000000    0.00000000   -0.00000000
     atom    2 type  2   force =     0.00000000    0.00000000   -0.00000000
     The Hubbard contrib.    to forces
     atom    1 type  1   force =     0.00000000    0.00000000    0.00000000
     atom    2 type  2   force =     0.00000000    0.00000000    0.00000000
     The SCF correction term to forces
     atom    1 type  1   force =    -0.00000000    0.00000000   -0.00000000
     atom    2 type  2   force =    -0.00000000   -0.00000000   -0.00000000

     Total force =     0.000000     Total SCF correction =     0.000000


     Computing stress (Cartesian axis) and pressure

          total   stress  (Ry/bohr**3)                   (kbar)     P=      -84.71
  -0.00057587  -0.00003962   0.00003962          -84.71       -5.83        5.83
  -0.00003962  -0.00057587  -0.00003962           -5.83      -84.71       -5.83
   0.00003962  -0.00003962  -0.00057587            5.83       -5.83      -84.71

     Energy error            =      1.4E-02 Ry
     Gradient error          =      8.2E-29 Ry/Bohr
     Cell gradient error     =      8.5E+01 kbar

     number of scf cycles    =  27
     number of bfgs steps    =  25

     enthalpy           old  =    -225.4944244020 Ry
     enthalpy           new  =    -225.5088828932 Ry

     CASE: enthalpy          _new < enthalpy          _old

[...]
     Cell gradient error     =      4.2E-02 kbar
WARNING! With ibrav=0, cell_dofree='ibrav' has no effect. 

     bfgs converged in  34 scf cycles and  32 bfgs steps
     (criteria: energy <  1.0E-05 Ry, force <  1.0E-04 Ry/Bohr, cell <  5.0E-01 kbar)

     End of BFGS Geometry Optimization

     Final enthalpy           =    -225.5105970710 Ry

     File ./tmp/TiO.bfgs deleted, as requested
Begin final coordinates
     new unit-cell volume =    125.36229 a.u.^3 (    18.57677 Ang^3 )
     density =      5.70885 g/cm^3

CELL_PARAMETERS (alat= 11.46323974)
   0.291050022   0.145593487   0.291050022
   0.145593487   0.291050022  -0.291050022
  -0.291050022   0.291050022   0.145593487

ATOMIC_POSITIONS (crystal)
Ti            0.0000000000       -0.0000000000       -0.0000000000
O             0.5000000000        0.5000000000        0.5000000000
End final coordinates



     Writing config-only to output data dir ./tmp/TiO.save/

     Final scf calculation at the relaxed structure.
     The G-vectors are recalculated for the final unit cell
     Results may differ from those at the preceding step.
 
     Parallelization info
     --------------------
     sticks:   dense  smooth     PW     G-vecs:    dense   smooth      PW
     Min          34      34     11                  612      612     119
     Max          35      35     12                  617      617     124
     Sum         553     553    185                 9843     9843    1935
 
     Using Slab Decomposition
 


     bravais-lattice index     =            0
     lattice parameter (alat)  =      11.4632  a.u.
     unit-cell volume          =     125.3623 (a.u.)^3
     number of atoms/cell      =            2
     number of atomic types    =            2
     number of electrons       =        18.00
     number of Kohn-Sham states=           13
     kinetic-energy cutoff     =      70.0000  Ry
     charge density cutoff     =     280.0000  Ry
     scf convergence threshold =      1.0E-14
     mixing beta               =       0.2000
     number of iterations used =            8  plain     mixing
     press convergence thresh. =      5.0E-01
     Exchange-correlation= SLA  PW   PBX  PBC
                           (   1   4   3   4   0   0   0)

     celldm(1)=  11.463240  celldm(2)=   0.000000  celldm(3)=   0.000000
     celldm(4)=   0.000000  celldm(5)=   0.000000  celldm(6)=   0.000000

     crystal axes: (cart. coord. in units of alat)
               a(1) = (   0.291050   0.145593   0.291050 )  
               a(2) = (   0.145593   0.291050  -0.291050 )  
               a(3) = (  -0.291050   0.291050   0.145593 )  

     reciprocal axes: (cart. coord. in units 2 pi/alat)
               b(1) = (  1.527038  0.763160  1.527038 )  
               b(2) = (  0.763160  1.527038 -1.527038 )  
               b(3) = ( -1.527038  1.527038  0.763160 )  


     PseudoPot. # 1 for Ti read from file:
     ./Ti.pbe-spn-kjpaw_psl.1.0.0.UPF
     MD5 check sum: 01f69b0d8ba4438b2e03ac6ea4af1c0b
     Pseudo is Projector augmented-wave + core cor, Zval = 12.0
     Generated using &quot;atomic&quot; code by A. Dal Corso  v.6.2.2
     Shape of augmentation charge: PSQ
     Using radial grid of 1177 points,  6 beta functions with: 
                l(1) =   0
                l(2) =   0
                l(3) =   1
                l(4) =   1
                l(5) =   2
                l(6) =   2
     Q(r) pseudized with 0 coefficients 


     PseudoPot. # 2 for O  read from file:
     ./O.pbe-n-kjpaw_psl.1.0.0.UPF
     MD5 check sum: e99d9cef9b487d1ca56f5b95ecd0fd7a
     Pseudo is Projector augmented-wave + core cor, Zval =  6.0
     Generated using &quot;atomic&quot; code by A. Dal Corso  v.6.3
     Shape of augmentation charge: PSQ
     Using radial grid of 1095 points,  4 beta functions with: 
                l(1) =   0
                l(2) =   0
                l(3) =   1
                l(4) =   1
     Q(r) pseudized with 0 coefficients 


     atomic species   valence    mass     pseudopotential
        Ti            12.00    47.86700     Ti( 1.00)
        O              6.00    15.99900     O ( 1.00)

     12 Sym. Ops., with inversion, found



   Cartesian axes

     site n.     atom                  positions (alat units)
         1           Ti  tau(   1) = (   0.0000000  -0.0000000   0.0000000  )
         2           O   tau(   2) = (   0.0727967   0.3638468   0.0727967  )

     number of k points=   116  Methfessel-Paxton smearing, width (Ry)=  0.0200

     Number of k-points >= 100: set verbosity='high' to print them.

     Dense  grid:     9843 G-vectors     FFT dimensions: (  27,  27,  27)

     Estimated max dynamical RAM per process >      14.88 MB

     Estimated total dynamical RAM >     238.09 MB

     Atomic positions and unit cell read from directory:
     ./tmp/TiO.save/
 

     Check: negative core charge=   -0.000032

     Initial potential from superposition of free atoms

     starting charge      17.9985, renormalised to      18.0000
     Starting wfcs are   14 randomized atomic wfcs
     Checking if some PAW data can be deallocated... 

     total cpu time spent up to now is      571.5 secs

     Self-consistent Calculation

     iteration #  1     ecut=    70.00 Ry     beta= 0.20
     Davidson diagonalization with overlap
     ethr =  1.00E-06,  avg # of iterations =  7.7

     total cpu time spent up to now is      572.6 secs

     total energy              =    -225.49116499 Ry
     estimated scf accuracy    <       0.21577720 Ry

     iteration #  2     ecut=    70.00 Ry     beta= 0.20
     Davidson diagonalization with overlap
     ethr =  1.20E-03,  avg # of iterations =  1.0

     total cpu time spent up to now is      573.0 secs

     total energy              =    -225.49064557 Ry
     estimated scf accuracy    <       0.04626662 Ry

     iteration #  3     ecut=    70.00 Ry     beta= 0.20
     Davidson diagonalization with overlap
     ethr =  2.57E-04,  avg # of iterations =  2.7

     total cpu time spent up to now is      573.6 secs

     total energy              =    -225.50412734 Ry
     estimated scf accuracy    <       0.02096538 Ry

     iteration #  4     ecut=    70.00 Ry     beta= 0.20
     Davidson diagonalization with overlap
     ethr =  1.16E-04,  avg # of iterations =  1.5

     total cpu time spent up to now is      574.0 secs

     total energy              =    -225.50867954 Ry
     estimated scf accuracy    <       0.00590794 Ry

     iteration #  5     ecut=    70.00 Ry     beta= 0.20
     Davidson diagonalization with overlap
     ethr =  3.28E-05,  avg # of iterations =  2.7

     total cpu time spent up to now is      574.5 secs

     total energy              =    -225.50744213 Ry
     estimated scf accuracy    <       0.00658543 Ry

     iteration #  6     ecut=    70.00 Ry     beta= 0.20
     Davidson diagonalization with overlap
     ethr =  3.28E-05,  avg # of iterations =  3.3

     total cpu time spent up to now is      575.1 secs

     total energy              =    -225.50883646 Ry
     estimated scf accuracy    <       0.00166332 Ry

     iteration #  7     ecut=    70.00 Ry     beta= 0.20
     Davidson diagonalization with overlap
     ethr =  9.24E-06,  avg # of iterations =  3.1

     total cpu time spent up to now is      575.6 secs

     total energy              =    -225.50932052 Ry
     estimated scf accuracy    <       0.00036773 Ry

     iteration #  8     ecut=    70.00 Ry     beta= 0.20
     Davidson diagonalization with overlap
     ethr =  2.04E-06,  avg # of iterations =  2.0

     total cpu time spent up to now is      576.1 secs

     total energy              =    -225.50937811 Ry
     estimated scf accuracy    <       0.00002366 Ry

     iteration #  9     ecut=    70.00 Ry     beta= 0.20
     Davidson diagonalization with overlap
     ethr =  1.31E-07,  avg # of iterations =  3.1

     total cpu time spent up to now is      576.6 secs

     total energy              =    -225.50938027 Ry
     estimated scf accuracy    <       0.00001876 Ry

     iteration # 10     ecut=    70.00 Ry     beta= 0.20
     Davidson diagonalization with overlap
     ethr =  1.04E-07,  avg # of iterations =  1.9

     total cpu time spent up to now is      577.1 secs

     total energy              =    -225.50938343 Ry
     estimated scf accuracy    <       0.00000053 Ry

     iteration # 11     ecut=    70.00 Ry     beta= 0.20
     Davidson diagonalization with overlap
     ethr =  2.95E-09,  avg # of iterations =  2.7

     total cpu time spent up to now is      577.6 secs

     total energy              =    -225.50938352 Ry
     estimated scf accuracy    <       0.00000039 Ry

     iteration # 12     ecut=    70.00 Ry     beta= 0.20
     Davidson diagonalization with overlap
     ethr =  2.16E-09,  avg # of iterations =  1.8

     total cpu time spent up to now is      578.1 secs

     total energy              =    -225.50938357 Ry
     estimated scf accuracy    <       0.00000014 Ry

     iteration # 13     ecut=    70.00 Ry     beta= 0.20
     Davidson diagonalization with overlap
     ethr =  7.59E-10,  avg # of iterations =  1.0

     total cpu time spent up to now is      578.5 secs

     total energy              =    -225.50938355 Ry
     estimated scf accuracy    <       0.00000028 Ry

     iteration # 14     ecut=    70.00 Ry     beta= 0.20
     Davidson diagonalization with overlap
     ethr =  7.59E-10,  avg # of iterations =  1.0

     total cpu time spent up to now is      578.9 secs

     total energy              =    -225.50938347 Ry
     estimated scf accuracy    <       0.00000019 Ry

     iteration # 15     ecut=    70.00 Ry     beta= 0.20
     Davidson diagonalization with overlap
     ethr =  7.59E-10,  avg # of iterations =  3.1

     total cpu time spent up to now is      579.4 secs

     total energy              =    -225.50938350 Ry
     estimated scf accuracy    <          7.9E-10 Ry

     iteration # 16     ecut=    70.00 Ry     beta= 0.20
     Davidson diagonalization with overlap
     ethr =  4.38E-12,  avg # of iterations =  3.7

     total cpu time spent up to now is      580.0 secs

     total energy              =    -225.50938351 Ry
     estimated scf accuracy    <          5.2E-10 Ry

     iteration # 17     ecut=    70.00 Ry     beta= 0.20
     Davidson diagonalization with overlap
     ethr =  2.90E-12,  avg # of iterations =  2.2

     total cpu time spent up to now is      580.4 secs

     total energy              =    -225.50938351 Ry
     estimated scf accuracy    <          7.3E-10 Ry

     iteration # 18     ecut=    70.00 Ry     beta= 0.20
     Davidson diagonalization with overlap
     ethr =  2.90E-12,  avg # of iterations =  1.0

     total cpu time spent up to now is      580.8 secs

     total energy              =    -225.50938351 Ry
     estimated scf accuracy    <          6.8E-10 Ry

     iteration # 19     ecut=    70.00 Ry     beta= 0.20
     Davidson diagonalization with overlap
     ethr =  2.90E-12,  avg # of iterations =  1.0

     total cpu time spent up to now is      581.2 secs

     total energy              =    -225.50938351 Ry
     estimated scf accuracy    <          8.5E-10 Ry

     iteration # 20     ecut=    70.00 Ry     beta= 0.20
     Davidson diagonalization with overlap
     ethr =  2.90E-12,  avg # of iterations =  1.0

     total cpu time spent up to now is      581.6 secs

     total energy              =    -225.50938351 Ry
     estimated scf accuracy    <          1.3E-09 Ry

     iteration # 21     ecut=    70.00 Ry     beta= 0.20
     Davidson diagonalization with overlap
     ethr =  2.90E-12,  avg # of iterations =  1.0

     total cpu time spent up to now is      582.0 secs

     total energy              =    -225.50938351 Ry
     estimated scf accuracy    <          1.6E-09 Ry

     iteration # 22     ecut=    70.00 Ry     beta= 0.20
     Davidson diagonalization with overlap
     ethr =  2.90E-12,  avg # of iterations =  1.0

     total cpu time spent up to now is      582.4 secs

     total energy              =    -225.50938351 Ry
     estimated scf accuracy    <          1.5E-09 Ry

     iteration # 23     ecut=    70.00 Ry     beta= 0.20
     Davidson diagonalization with overlap
     ethr =  2.90E-12,  avg # of iterations =  1.0

     total cpu time spent up to now is      582.8 secs

     total energy              =    -225.50938351 Ry
     estimated scf accuracy    <          8.1E-10 Ry

     iteration # 24     ecut=    70.00 Ry     beta= 0.20
     Davidson diagonalization with overlap
     ethr =  2.90E-12,  avg # of iterations =  1.0

     total cpu time spent up to now is      583.2 secs

     total energy              =    -225.50938351 Ry
     estimated scf accuracy    <          7.8E-10 Ry

     iteration # 25     ecut=    70.00 Ry     beta= 0.20
     Davidson diagonalization with overlap
     ethr =  2.90E-12,  avg # of iterations =  3.0

     total cpu time spent up to now is      583.8 secs

     total energy              =    -225.50938351 Ry
     estimated scf accuracy    <          2.3E-10 Ry

     iteration # 26     ecut=    70.00 Ry     beta= 0.20
     Davidson diagonalization with overlap
     ethr =  1.26E-12,  avg # of iterations =  2.4

     total cpu time spent up to now is      584.3 secs

     total energy              =    -225.50938351 Ry
     estimated scf accuracy    <          1.4E-11 Ry

     iteration # 27     ecut=    70.00 Ry     beta= 0.20
     Davidson diagonalization with overlap
     ethr =  1.00E-13,  avg # of iterations =  3.1

     total cpu time spent up to now is      584.8 secs

     total energy              =    -225.50938351 Ry
     estimated scf accuracy    <          4.9E-12 Ry

     iteration # 28     ecut=    70.00 Ry     beta= 0.20
     Davidson diagonalization with overlap
     ethr =  1.00E-13,  avg # of iterations =  1.1

     total cpu time spent up to now is      585.2 secs

     total energy              =    -225.50938351 Ry
     estimated scf accuracy    <          8.4E-13 Ry

     iteration # 29     ecut=    70.00 Ry     beta= 0.20
     Davidson diagonalization with overlap
     ethr =  1.00E-13,  avg # of iterations =  1.0

     total cpu time spent up to now is      585.6 secs

     total energy              =    -225.50938351 Ry
     estimated scf accuracy    <          8.0E-13 Ry

     iteration # 30     ecut=    70.00 Ry     beta= 0.20
     Davidson diagonalization with overlap
     ethr =  1.00E-13,  avg # of iterations =  1.0

     total cpu time spent up to now is      586.0 secs

     total energy              =    -225.50938351 Ry
     estimated scf accuracy    <          8.9E-14 Ry

     iteration # 31     ecut=    70.00 Ry     beta= 0.20
     Davidson diagonalization with overlap
     ethr =  1.00E-13,  avg # of iterations =  1.0

     total cpu time spent up to now is      586.4 secs

     End of self-consistent calculation

     Number of k-points >= 100: set verbosity='high' to print the bands.

     the Fermi energy is    18.0074 ev

!    total energy              =    -225.50938351 Ry
     total all-electron energy =     -1858.279184 Ry
     estimated scf accuracy    <          7.0E-15 Ry
     smearing contrib. (-TS)   =       0.00039717 Ry
     internal energy E=F+TS    =    -225.50978068 Ry

     The total energy is F=E-TS. E is the sum of the following terms:
     one-electron contribution =     -23.61908079 Ry
     hartree contribution      =      24.37803276 Ry
     xc contribution           =     -26.25727892 Ry
     ewald contribution        =    -125.11770384 Ry
     one-center paw contrib.   =     -74.89374989 Ry

     convergence has been achieved in  31 iterations

     Forces acting on atoms (cartesian axes, Ry/au):

     atom    1 type  1   force =     0.00000000    0.00000000   -0.00000000
     atom    2 type  2   force =    -0.00000000   -0.00000000    0.00000000
     The non-local contrib.  to forces
     atom    1 type  1   force =    -0.00000000    0.00000000   -0.00000000
     atom    2 type  2   force =     0.00000000    0.00000000   -0.00000000
     The ionic contribution  to forces
     atom    1 type  1   force =     0.00000000    0.00000000   -0.00000000
     atom    2 type  2   force =    -0.00000000   -0.00000000    0.00000000
     The local contribution  to forces
     atom    1 type  1   force =     0.00000000   -0.00000000   -0.00000000
     atom    2 type  2   force =    -0.00000000   -0.00000000    0.00000000
     The core correction contribution to forces
     atom    1 type  1   force =     0.00000000   -0.00000000   -0.00000000
     atom    2 type  2   force =     0.00000000    0.00000000   -0.00000000
     The Hubbard contrib.    to forces
     atom    1 type  1   force =     0.00000000    0.00000000    0.00000000
     atom    2 type  2   force =     0.00000000    0.00000000    0.00000000
     The SCF correction term to forces
     atom    1 type  1   force =    -0.00000000    0.00000000    0.00000000
     atom    2 type  2   force =    -0.00000000    0.00000000    0.00000000

     Total force =     0.000000     Total SCF correction =     0.000000


     Computing stress (Cartesian axis) and pressure

          total   stress  (Ry/bohr**3)                   (kbar)     P=       -5.80
  -0.00003940  -0.00000085   0.00000085           -5.80       -0.12        0.12
  -0.00000085  -0.00003940  -0.00000085           -0.12       -5.80       -0.12
   0.00000085  -0.00000085  -0.00003940            0.12       -0.12       -5.80


     Writing all to output data dir ./tmp/TiO.save/
 
     init_run     :      1.03s CPU      1.14s WALL (       2 calls)
     electrons    :    540.58s CPU    559.77s WALL (      14 calls)
     update_pot   :      5.14s CPU      5.18s WALL (      12 calls)
     forces       :      3.63s CPU      3.72s WALL (      14 calls)
     stress       :     14.64s CPU     15.03s WALL (      14 calls)

     Called by init_run:
     wfcinit      :      0.16s CPU      0.17s WALL (       2 calls)
     potinit      :      0.12s CPU      0.15s WALL (       2 calls)
     hinit0       :      0.69s CPU      0.74s WALL (       2 calls)

     Called by electrons:
     c_bands      :    429.10s CPU    442.84s WALL (     368 calls)
     sum_band     :     85.53s CPU     89.16s WALL (     368 calls)
     v_of_rho     :      1.92s CPU      2.05s WALL (     382 calls)
     newd         :      5.82s CPU      7.03s WALL (     382 calls)
     PAW_pot      :     18.96s CPU     19.17s WALL (     394 calls)
     mix_rho      :      0.52s CPU      0.57s WALL (     368 calls)

     Called by c_bands:
     init_us_2    :     10.25s CPU     10.66s WALL (   90132 calls)
     init_us_2:cp :     10.00s CPU     10.45s WALL (   90132 calls)
     cegterg      :    394.92s CPU    406.08s WALL (   42688 calls)

     Called by *egterg:
     cdiaghg      :     29.22s CPU     30.24s WALL (  130501 calls)
     h_psi        :    329.12s CPU    338.28s WALL (  132125 calls)
     s_psi        :      5.37s CPU      5.59s WALL (  132125 calls)
     g_psi        :      2.45s CPU      2.52s WALL (   89321 calls)

     Called by h_psi:
     h_psi:calbec :      8.14s CPU      8.37s WALL (  132125 calls)
     vloc_psi     :    313.19s CPU    321.90s WALL (  132125 calls)
     add_vuspsi   :      5.57s CPU      5.77s WALL (  132125 calls)

     General routines
     calbec       :     11.47s CPU     11.87s WALL (  184325 calls)
     fft          :      0.98s CPU      1.10s WALL (    4564 calls)
     ffts         :      0.10s CPU      0.11s WALL (     368 calls)
     fftw         :    335.37s CPU    344.52s WALL ( 3241106 calls)
     davcio       :      0.01s CPU      0.02s WALL (     116 calls)
 
     Parallel routines
 
     PWSCF        :   9m26.56s CPU   9m47.03s WALL

 
   This run was terminated on:  12:36:30  17Apr2025            

=------------------------------------------------------------------------------=
   JOB DONE.
=------------------------------------------------------------------------------=
