
     Program PWSCF v.7.2 starts on 17Apr2025 at 12:43:31 

     This program is part of the open-source Quantum ESPRESSO suite
     for quantum simulation of materials; please cite
         "P. Giannozzi et al., J. Phys.:Condens. Matter 21 395502 (2009);
         "P. Giannozzi et al., J. Phys.:Condens. Matter 29 465901 (2017);
         "P. Giannozzi et al., J. Chem. Phys. 152 154105 (2020);
          URL http://www.quantum-espresso.org", 
     in publications or presentations arising from this work. More details at
     http://www.quantum-espresso.org/quote

     Parallel version (MPI), running on    16 processors

     MPI processes distributed on     1 nodes
     245593 MiB available memory on the printing compute node when the environment starts
 
     Waiting for input...
     Reading input from standard input

     Current dimensions of program PWSCF are:
     Max number of different atomic species (ntypx) = 10
     Max number of k-points (npk) =  40000
     Max angular momentum in pseudopotentials (lmaxx) =  4
     file Ti.pbe-spn-kjpaw_psl.1.0.0.UPF: wavefunction(s)  3S 3P 3D renormalized
     file O.pbe-n-kjpaw_psl.1.0.0.UPF: wavefunction(s)  2S 2P renormalized
     Message from routine setup:
     using ibrav=0 with symmetry is DISCOURAGED, use correct ibrav instead
 
     K-points division:     npool     =       2
     R & G space division:  proc/nbgrp/npool/nimage =       8
     Subspace diagonalization in iterative solution of the eigenvalue problem:
     a serial algorithm will be used

 
     Parallelization info
     --------------------
     sticks:   dense  smooth     PW     G-vecs:    dense   smooth      PW
     Min          69      69     22                 1229     1229     222
     Max          70      70     23                 1234     1234     225
     Sum         553     553    177                 9843     9843    1791
 
     Using Slab Decomposition
 


     bravais-lattice index     =            0
     lattice parameter (alat)  =      11.4632  a.u.
     unit-cell volume          =     125.3623 (a.u.)^3
     number of atoms/cell      =            2
     number of atomic types    =            2
     number of electrons       =        18.00
     number of Kohn-Sham states=           13
     kinetic-energy cutoff     =      70.0000  Ry
     charge density cutoff     =     280.0000  Ry
     scf convergence threshold =      1.0E-17
     mixing beta               =       0.4000
     number of iterations used =            8  plain     mixing
     Exchange-correlation= SLA  PW   PBX  PBC
                           (   1   4   3   4   0   0   0)

     celldm(1)=  11.463240  celldm(2)=   0.000000  celldm(3)=   0.000000
     celldm(4)=   0.000000  celldm(5)=   0.000000  celldm(6)=   0.000000

     crystal axes: (cart. coord. in units of alat)
               a(1) = (   0.291050   0.145593   0.291050 )  
               a(2) = (   0.145593   0.291050  -0.291050 )  
               a(3) = (  -0.291050   0.291050   0.145593 )  

     reciprocal axes: (cart. coord. in units 2 pi/alat)
               b(1) = (  1.527038  0.763160  1.527038 )  
               b(2) = (  0.763160  1.527038 -1.527038 )  
               b(3) = ( -1.527038  1.527038  0.763160 )  


     PseudoPot. # 1 for Ti read from file:
     ./Ti.pbe-spn-kjpaw_psl.1.0.0.UPF
     MD5 check sum: 01f69b0d8ba4438b2e03ac6ea4af1c0b
     Pseudo is Projector augmented-wave + core cor, Zval = 12.0
     Generated using &quot;atomic&quot; code by A. Dal Corso  v.6.2.2
     Shape of augmentation charge: PSQ
     Using radial grid of 1177 points,  6 beta functions with: 
                l(1) =   0
                l(2) =   0
                l(3) =   1
                l(4) =   1
                l(5) =   2
                l(6) =   2
     Q(r) pseudized with 0 coefficients 


     PseudoPot. # 2 for O  read from file:
     ./O.pbe-n-kjpaw_psl.1.0.0.UPF
     MD5 check sum: e99d9cef9b487d1ca56f5b95ecd0fd7a
     Pseudo is Projector augmented-wave + core cor, Zval =  6.0
     Generated using &quot;atomic&quot; code by A. Dal Corso  v.6.3
     Shape of augmentation charge: PSQ
     Using radial grid of 1095 points,  4 beta functions with: 
                l(1) =   0
                l(2) =   0
                l(3) =   1
                l(4) =   1
     Q(r) pseudized with 0 coefficients 


     atomic species   valence    mass     pseudopotential
        Ti            12.00    47.86700     Ti( 1.00)
        O              6.00    15.99900     O ( 1.00)

     12 Sym. Ops., with inversion, found



   Cartesian axes

     site n.     atom                  positions (alat units)
         1           Ti  tau(   1) = (   0.0000000   0.0000000   0.0000000  )
         2           O   tau(   2) = (   0.0727967   0.3638468   0.0727967  )

     number of k points=   116  Methfessel-Paxton smearing, width (Ry)=  0.0200

     Number of k-points >= 100: set verbosity='high' to print them.

     Dense  grid:     9843 G-vectors     FFT dimensions: (  27,  27,  27)

     Estimated max dynamical RAM per process >       7.20 MB

     Estimated total dynamical RAM >     112.84 MB

     Check: negative core charge=   -0.000032

     Initial potential from superposition of free atoms

     starting charge      17.9985, renormalised to      18.0000
     Starting wfcs are   14 randomized atomic wfcs
     Checking if some PAW data can be deallocated... 

     total cpu time spent up to now is        0.4 secs

     Self-consistent Calculation

     iteration #  1     ecut=    70.00 Ry     beta= 0.40
     Davidson diagonalization with overlap
     ethr =  1.00E-02,  avg # of iterations =  2.0

     total cpu time spent up to now is        0.8 secs

     total energy              =    -225.41917438 Ry
     estimated scf accuracy    <       0.23957679 Ry

     iteration #  2     ecut=    70.00 Ry     beta= 0.40
     Davidson diagonalization with overlap
     ethr =  1.33E-03,  avg # of iterations =  3.0

     total cpu time spent up to now is        1.1 secs

     total energy              =    -225.49245366 Ry
     estimated scf accuracy    <       0.08795706 Ry

     iteration #  3     ecut=    70.00 Ry     beta= 0.40
     Davidson diagonalization with overlap
     ethr =  4.89E-04,  avg # of iterations =  1.2

     total cpu time spent up to now is        1.4 secs

     total energy              =    -225.50397079 Ry
     estimated scf accuracy    <       0.00729814 Ry

     iteration #  4     ecut=    70.00 Ry     beta= 0.40
     Davidson diagonalization with overlap
     ethr =  4.05E-05,  avg # of iterations =  3.0

     total cpu time spent up to now is        1.8 secs

     total energy              =    -225.50922059 Ry
     estimated scf accuracy    <       0.00837150 Ry

     iteration #  5     ecut=    70.00 Ry     beta= 0.40
     Davidson diagonalization with overlap
     ethr =  4.05E-05,  avg # of iterations =  1.0

     total cpu time spent up to now is        2.1 secs

     total energy              =    -225.50916618 Ry
     estimated scf accuracy    <       0.00216593 Ry

     iteration #  6     ecut=    70.00 Ry     beta= 0.40
     Davidson diagonalization with overlap
     ethr =  1.20E-05,  avg # of iterations =  2.0

     total cpu time spent up to now is        2.4 secs

     total energy              =    -225.50944280 Ry
     estimated scf accuracy    <       0.00031098 Ry

     iteration #  7     ecut=    70.00 Ry     beta= 0.40
     Davidson diagonalization with overlap
     ethr =  1.73E-06,  avg # of iterations =  1.0

     total cpu time spent up to now is        2.7 secs

     total energy              =    -225.50939645 Ry
     estimated scf accuracy    <       0.00026473 Ry

     iteration #  8     ecut=    70.00 Ry     beta= 0.40
     Davidson diagonalization with overlap
     ethr =  1.47E-06,  avg # of iterations =  1.0

     total cpu time spent up to now is        2.9 secs

     total energy              =    -225.50935671 Ry
     estimated scf accuracy    <       0.00010084 Ry

     iteration #  9     ecut=    70.00 Ry     beta= 0.40
     Davidson diagonalization with overlap
     ethr =  5.60E-07,  avg # of iterations =  3.1

     total cpu time spent up to now is        3.3 secs

     total energy              =    -225.50938395 Ry
     estimated scf accuracy    <       0.00000383 Ry

     iteration # 10     ecut=    70.00 Ry     beta= 0.40
     Davidson diagonalization with overlap
     ethr =  2.13E-08,  avg # of iterations =  1.6

     total cpu time spent up to now is        3.6 secs

     total energy              =    -225.50938321 Ry
     estimated scf accuracy    <       0.00000492 Ry

     iteration # 11     ecut=    70.00 Ry     beta= 0.40
     Davidson diagonalization with overlap
     ethr =  2.13E-08,  avg # of iterations =  1.6

     total cpu time spent up to now is        3.9 secs

     total energy              =    -225.50938316 Ry
     estimated scf accuracy    <       0.00000080 Ry

     iteration # 12     ecut=    70.00 Ry     beta= 0.40
     Davidson diagonalization with overlap
     ethr =  4.42E-09,  avg # of iterations =  3.4

     total cpu time spent up to now is        4.3 secs

     total energy              =    -225.50938350 Ry
     estimated scf accuracy    <       0.00000011 Ry

     iteration # 13     ecut=    70.00 Ry     beta= 0.40
     Davidson diagonalization with overlap
     ethr =  6.27E-10,  avg # of iterations =  1.1

     total cpu time spent up to now is        4.6 secs

     total energy              =    -225.50938351 Ry
     estimated scf accuracy    <       0.00000003 Ry

     iteration # 14     ecut=    70.00 Ry     beta= 0.40
     Davidson diagonalization with overlap
     ethr =  1.83E-10,  avg # of iterations =  2.9

     total cpu time spent up to now is        4.9 secs

     total energy              =    -225.50938351 Ry
     estimated scf accuracy    <       0.00000002 Ry

     iteration # 15     ecut=    70.00 Ry     beta= 0.40
     Davidson diagonalization with overlap
     ethr =  1.09E-10,  avg # of iterations =  2.0

     total cpu time spent up to now is        5.2 secs

     total energy              =    -225.50938350 Ry
     estimated scf accuracy    <          4.0E-09 Ry

     iteration # 16     ecut=    70.00 Ry     beta= 0.40
     Davidson diagonalization with overlap
     ethr =  2.22E-11,  avg # of iterations =  3.1

     total cpu time spent up to now is        5.6 secs

     total energy              =    -225.50938351 Ry
     estimated scf accuracy    <          3.4E-09 Ry

     iteration # 17     ecut=    70.00 Ry     beta= 0.40
     Davidson diagonalization with overlap
     ethr =  1.90E-11,  avg # of iterations =  3.2

     total cpu time spent up to now is        6.0 secs

     total energy              =    -225.50938351 Ry
     estimated scf accuracy    <          9.2E-12 Ry

     iteration # 18     ecut=    70.00 Ry     beta= 0.40
     Davidson diagonalization with overlap
     ethr =  1.00E-13,  avg # of iterations =  4.0

     total cpu time spent up to now is        6.4 secs

     total energy              =    -225.50938351 Ry
     estimated scf accuracy    <          2.6E-10 Ry

     iteration # 19     ecut=    70.00 Ry     beta= 0.40
     Davidson diagonalization with overlap
     ethr =  1.00E-13,  avg # of iterations =  3.2

     total cpu time spent up to now is        6.8 secs

     total energy              =    -225.50938351 Ry
     estimated scf accuracy    <          1.3E-10 Ry

     iteration # 20     ecut=    70.00 Ry     beta= 0.40
     Davidson diagonalization with overlap
     ethr =  1.00E-13,  avg # of iterations =  3.0

     total cpu time spent up to now is        7.1 secs

     total energy              =    -225.50938351 Ry
     estimated scf accuracy    <          3.2E-10 Ry

     iteration # 21     ecut=    70.00 Ry     beta= 0.40
     Davidson diagonalization with overlap
     ethr =  1.00E-13,  avg # of iterations =  3.1

     total cpu time spent up to now is        7.5 secs

     total energy              =    -225.50938351 Ry
     estimated scf accuracy    <          9.6E-12 Ry

     iteration # 22     ecut=    70.00 Ry     beta= 0.40
     Davidson diagonalization with overlap
     ethr =  1.00E-13,  avg # of iterations =  1.0

     total cpu time spent up to now is        7.8 secs

     total energy              =    -225.50938351 Ry
     estimated scf accuracy    <          7.0E-12 Ry

     iteration # 23     ecut=    70.00 Ry     beta= 0.40
     Davidson diagonalization with overlap
     ethr =  1.00E-13,  avg # of iterations =  1.0

     total cpu time spent up to now is        8.0 secs

     total energy              =    -225.50938351 Ry
     estimated scf accuracy    <          6.3E-13 Ry

     iteration # 24     ecut=    70.00 Ry     beta= 0.40
     Davidson diagonalization with overlap
     ethr =  1.00E-13,  avg # of iterations =  1.0

     total cpu time spent up to now is        8.3 secs

     total energy              =    -225.50938351 Ry
     estimated scf accuracy    <          1.7E-14 Ry

     iteration # 25     ecut=    70.00 Ry     beta= 0.40
     Davidson diagonalization with overlap
     ethr =  1.00E-13,  avg # of iterations =  1.0

     total cpu time spent up to now is        8.6 secs

     total energy              =    -225.50938351 Ry
     estimated scf accuracy    <          1.9E-13 Ry

     iteration # 26     ecut=    70.00 Ry     beta= 0.40
     Davidson diagonalization with overlap
     ethr =  1.00E-13,  avg # of iterations =  1.0

     total cpu time spent up to now is        8.9 secs

     total energy              =    -225.50938351 Ry
     estimated scf accuracy    <          1.9E-13 Ry

     iteration # 27     ecut=    70.00 Ry     beta= 0.40
     Davidson diagonalization with overlap
     ethr =  1.00E-13,  avg # of iterations =  1.0

     total cpu time spent up to now is        9.1 secs

     total energy              =    -225.50938351 Ry
     estimated scf accuracy    <          1.0E-13 Ry

     iteration # 28     ecut=    70.00 Ry     beta= 0.40
     Davidson diagonalization with overlap
     ethr =  1.00E-13,  avg # of iterations =  1.0

     total cpu time spent up to now is        9.4 secs

     total energy              =    -225.50938351 Ry
     estimated scf accuracy    <          2.5E-14 Ry

     iteration # 29     ecut=    70.00 Ry     beta= 0.40
     Davidson diagonalization with overlap
     ethr =  1.00E-13,  avg # of iterations =  1.0

     total cpu time spent up to now is        9.7 secs

     total energy              =    -225.50938351 Ry
     estimated scf accuracy    <          8.0E-15 Ry

     iteration # 30     ecut=    70.00 Ry     beta= 0.40
     Davidson diagonalization with overlap
     ethr =  1.00E-13,  avg # of iterations =  1.0

     total cpu time spent up to now is       10.0 secs

     total energy              =    -225.50938351 Ry
     estimated scf accuracy    <          4.1E-15 Ry

     iteration # 31     ecut=    70.00 Ry     beta= 0.40
     Davidson diagonalization with overlap
     ethr =  1.00E-13,  avg # of iterations =  1.0

     total cpu time spent up to now is       10.2 secs

     total energy              =    -225.50938351 Ry
     estimated scf accuracy    <          5.4E-15 Ry

     iteration # 32     ecut=    70.00 Ry     beta= 0.40
     Davidson diagonalization with overlap
     ethr =  1.00E-13,  avg # of iterations =  1.0

     total cpu time spent up to now is       10.5 secs

     total energy              =    -225.50938351 Ry
     estimated scf accuracy    <          1.5E-15 Ry

     iteration # 33     ecut=    70.00 Ry     beta= 0.40
     Davidson diagonalization with overlap
     ethr =  1.00E-13,  avg # of iterations =  1.0

     total cpu time spent up to now is       10.8 secs

     total energy              =    -225.50938351 Ry
     estimated scf accuracy    <          2.9E-14 Ry

     iteration # 34     ecut=    70.00 Ry     beta= 0.40
     Davidson diagonalization with overlap
     ethr =  1.00E-13,  avg # of iterations =  1.0

     total cpu time spent up to now is       11.1 secs

     total energy              =    -225.50938351 Ry
     estimated scf accuracy    <          1.9E-14 Ry

     iteration # 35     ecut=    70.00 Ry     beta= 0.40
     Davidson diagonalization with overlap
     ethr =  1.00E-13,  avg # of iterations =  1.0

     total cpu time spent up to now is       11.3 secs

     total energy              =    -225.50938351 Ry
     estimated scf accuracy    <          2.5E-14 Ry

     iteration # 36     ecut=    70.00 Ry     beta= 0.40
     Davidson diagonalization with overlap
     ethr =  1.00E-13,  avg # of iterations =  1.0

     total cpu time spent up to now is       11.6 secs

     total energy              =    -225.50938351 Ry
     estimated scf accuracy    <          1.5E-15 Ry

     iteration # 37     ecut=    70.00 Ry     beta= 0.40
     Davidson diagonalization with overlap
     ethr =  1.00E-13,  avg # of iterations =  1.0

     total cpu time spent up to now is       11.9 secs

     total energy              =    -225.50938351 Ry
     estimated scf accuracy    <          1.5E-15 Ry

     iteration # 38     ecut=    70.00 Ry     beta= 0.40
     Davidson diagonalization with overlap
     ethr =  1.00E-13,  avg # of iterations =  1.0

     total cpu time spent up to now is       12.2 secs

     total energy              =    -225.50938351 Ry
     estimated scf accuracy    <          4.8E-16 Ry

     iteration # 39     ecut=    70.00 Ry     beta= 0.40
     Davidson diagonalization with overlap
     ethr =  1.00E-13,  avg # of iterations =  1.0

     total cpu time spent up to now is       12.4 secs

     total energy              =    -225.50938351 Ry
     estimated scf accuracy    <          1.8E-15 Ry

     iteration # 40     ecut=    70.00 Ry     beta= 0.40
     Davidson diagonalization with overlap
     ethr =  1.00E-13,  avg # of iterations =  1.0

     total cpu time spent up to now is       12.7 secs

     total energy              =    -225.50938351 Ry
     estimated scf accuracy    <          6.4E-15 Ry

     iteration # 41     ecut=    70.00 Ry     beta= 0.40
     Davidson diagonalization with overlap
     ethr =  1.00E-13,  avg # of iterations =  1.0

     total cpu time spent up to now is       13.0 secs

     total energy              =    -225.50938351 Ry
     estimated scf accuracy    <          6.2E-15 Ry

     iteration # 42     ecut=    70.00 Ry     beta= 0.40
     Davidson diagonalization with overlap
     ethr =  1.00E-13,  avg # of iterations =  1.0

     total cpu time spent up to now is       13.2 secs

     total energy              =    -225.50938351 Ry
     estimated scf accuracy    <          6.0E-15 Ry

     iteration # 43     ecut=    70.00 Ry     beta= 0.40
     Davidson diagonalization with overlap
     ethr =  1.00E-13,  avg # of iterations =  1.0

     total cpu time spent up to now is       13.5 secs

     total energy              =    -225.50938351 Ry
     estimated scf accuracy    <          8.6E-15 Ry

     iteration # 44     ecut=    70.00 Ry     beta= 0.40
     Davidson diagonalization with overlap
     ethr =  1.00E-13,  avg # of iterations =  1.0

     total cpu time spent up to now is       13.8 secs

     total energy              =    -225.50938351 Ry
     estimated scf accuracy    <          1.2E-14 Ry

     iteration # 45     ecut=    70.00 Ry     beta= 0.40
     Davidson diagonalization with overlap
     ethr =  1.00E-13,  avg # of iterations =  1.0

     total cpu time spent up to now is       14.1 secs

     total energy              =    -225.50938351 Ry
     estimated scf accuracy    <          1.4E-14 Ry

     iteration # 46     ecut=    70.00 Ry     beta= 0.40
     Davidson diagonalization with overlap
     ethr =  1.00E-13,  avg # of iterations =  1.0

     total cpu time spent up to now is       14.3 secs

     total energy              =    -225.50938351 Ry
     estimated scf accuracy    <          8.9E-15 Ry

     iteration # 47     ecut=    70.00 Ry     beta= 0.40
     Davidson diagonalization with overlap
     ethr =  1.00E-13,  avg # of iterations =  1.0

     total cpu time spent up to now is       14.6 secs

     total energy              =    -225.50938351 Ry
     estimated scf accuracy    <          1.6E-15 Ry

     iteration # 48     ecut=    70.00 Ry     beta= 0.40
     Davidson diagonalization with overlap
     ethr =  1.00E-13,  avg # of iterations =  1.0

     total cpu time spent up to now is       14.9 secs

     total energy              =    -225.50938351 Ry
     estimated scf accuracy    <          7.5E-15 Ry

     iteration # 49     ecut=    70.00 Ry     beta= 0.40
     Davidson diagonalization with overlap
     ethr =  1.00E-13,  avg # of iterations =  1.0

     total cpu time spent up to now is       15.2 secs

     total energy              =    -225.50938351 Ry
     estimated scf accuracy    <          1.3E-15 Ry

     iteration # 50     ecut=    70.00 Ry     beta= 0.40
     Davidson diagonalization with overlap
     ethr =  1.00E-13,  avg # of iterations =  1.0

     total cpu time spent up to now is       15.4 secs

     total energy              =    -225.50938351 Ry
     estimated scf accuracy    <          1.9E-15 Ry

     iteration # 51     ecut=    70.00 Ry     beta= 0.40
     Davidson diagonalization with overlap
     ethr =  1.00E-13,  avg # of iterations =  1.0

     total cpu time spent up to now is       15.7 secs

     total energy              =    -225.50938351 Ry
     estimated scf accuracy    <          4.8E-17 Ry

     iteration # 52     ecut=    70.00 Ry     beta= 0.40
     Davidson diagonalization with overlap
     ethr =  1.00E-13,  avg # of iterations =  1.0

     total cpu time spent up to now is       16.0 secs

     total energy              =    -225.50938351 Ry
     estimated scf accuracy    <          8.2E-16 Ry

     iteration # 53     ecut=    70.00 Ry     beta= 0.40
     Davidson diagonalization with overlap
     ethr =  1.00E-13,  avg # of iterations =  1.0

     total cpu time spent up to now is       16.3 secs

     total energy              =    -225.50938351 Ry
     estimated scf accuracy    <          1.5E-16 Ry

     iteration # 54     ecut=    70.00 Ry     beta= 0.40
     Davidson diagonalization with overlap
     ethr =  1.00E-13,  avg # of iterations =  1.0

     total cpu time spent up to now is       16.5 secs

     total energy              =    -225.50938351 Ry
     estimated scf accuracy    <          1.1E-16 Ry

     iteration # 55     ecut=    70.00 Ry     beta= 0.40
     Davidson diagonalization with overlap
     ethr =  1.00E-13,  avg # of iterations =  1.0

     total cpu time spent up to now is       16.8 secs

     total energy              =    -225.50938351 Ry
     estimated scf accuracy    <          2.7E-17 Ry

     iteration # 56     ecut=    70.00 Ry     beta= 0.40
     Davidson diagonalization with overlap
     ethr =  1.00E-13,  avg # of iterations =  1.0

     total cpu time spent up to now is       17.1 secs

     total energy              =    -225.50938351 Ry
     estimated scf accuracy    <          5.1E-17 Ry

     iteration # 57     ecut=    70.00 Ry     beta= 0.40
     Davidson diagonalization with overlap
     ethr =  1.00E-13,  avg # of iterations =  1.0

     total cpu time spent up to now is       17.4 secs

     total energy              =    -225.50938351 Ry
     estimated scf accuracy    <          5.0E-17 Ry

     iteration # 58     ecut=    70.00 Ry     beta= 0.40
     Davidson diagonalization with overlap
     ethr =  1.00E-13,  avg # of iterations =  1.0

     total cpu time spent up to now is       17.6 secs

     total energy              =    -225.50938351 Ry
     estimated scf accuracy    <          2.3E-17 Ry

     iteration # 59     ecut=    70.00 Ry     beta= 0.40
     Davidson diagonalization with overlap
     ethr =  1.00E-13,  avg # of iterations =  1.0

     total cpu time spent up to now is       17.9 secs

     End of self-consistent calculation

     Number of k-points >= 100: set verbosity='high' to print the bands.

     the Fermi energy is    18.0074 ev

!    total energy              =    -225.50938351 Ry
     total all-electron energy =     -1858.279184 Ry
     estimated scf accuracy    <          2.8E-18 Ry
     smearing contrib. (-TS)   =       0.00039717 Ry
     internal energy E=F+TS    =    -225.50978068 Ry

     The total energy is F=E-TS. E is the sum of the following terms:
     one-electron contribution =     -23.61908123 Ry
     hartree contribution      =      24.37803318 Ry
     xc contribution           =     -26.25727903 Ry
     ewald contribution        =    -125.11770371 Ry
     one-center paw contrib.   =     -74.89374989 Ry

     convergence has been achieved in  59 iterations

     Forces acting on atoms (cartesian axes, Ry/au):

     atom    1 type  1   force =    -0.00000000   -0.00000000   -0.00000000
     atom    2 type  2   force =     0.00000000    0.00000000    0.00000000
     The non-local contrib.  to forces
     atom    1 type  1   force =    -0.00000000   -0.00000000   -0.00000000
     atom    2 type  2   force =     0.00000000    0.00000000   -0.00000000
     The ionic contribution  to forces
     atom    1 type  1   force =     0.00000000    0.00000000    0.00000000
     atom    2 type  2   force =    -0.00000000   -0.00000000   -0.00000000
     The local contribution  to forces
     atom    1 type  1   force =     0.00000000   -0.00000000   -0.00000000
     atom    2 type  2   force =    -0.00000000   -0.00000000   -0.00000000
     The core correction contribution to forces
     atom    1 type  1   force =    -0.00000000    0.00000000    0.00000000
     atom    2 type  2   force =    -0.00000000   -0.00000000   -0.00000000
     The Hubbard contrib.    to forces
     atom    1 type  1   force =     0.00000000    0.00000000    0.00000000
     atom    2 type  2   force =     0.00000000    0.00000000    0.00000000
     The SCF correction term to forces
     atom    1 type  1   force =    -0.00000000    0.00000000   -0.00000000
     atom    2 type  2   force =     0.00000000   -0.00000000   -0.00000000

     Total force =     0.000000     Total SCF correction =     0.000000


     Computing stress (Cartesian axis) and pressure

          total   stress  (Ry/bohr**3)                   (kbar)     P=       -5.80
  -0.00003940  -0.00000082   0.00000082           -5.80       -0.12        0.12
  -0.00000082  -0.00003940  -0.00000082           -0.12       -5.80       -0.12
   0.00000082  -0.00000082  -0.00003940            0.12       -0.12       -5.80


     Writing all to output data dir ./tmp/TiO.save/
 
     init_run     :      0.28s CPU      0.30s WALL (       1 calls)
     electrons    :     16.68s CPU     17.47s WALL (       1 calls)
     forces       :      0.05s CPU      0.05s WALL (       1 calls)
     stress       :      0.18s CPU      0.19s WALL (       1 calls)

     Called by init_run:
     wfcinit      :      0.09s CPU      0.10s WALL (       1 calls)
     potinit      :      0.07s CPU      0.07s WALL (       1 calls)
     hinit0       :      0.10s CPU      0.10s WALL (       1 calls)

     Called by electrons:
     c_bands      :     11.17s CPU     11.77s WALL (      59 calls)
     sum_band     :      2.41s CPU      2.53s WALL (      59 calls)
     v_of_rho     :      0.08s CPU      0.08s WALL (      60 calls)
     newd         :      0.12s CPU      0.12s WALL (      60 calls)
     PAW_pot      :      2.88s CPU      2.93s WALL (      60 calls)
     mix_rho      :      0.03s CPU      0.03s WALL (      59 calls)

     Called by c_bands:
     init_us_2    :      0.30s CPU      0.32s WALL (    7018 calls)
     init_us_2:cp :      0.29s CPU      0.30s WALL (    7018 calls)
     cegterg      :      9.91s CPU     10.43s WALL (    3422 calls)

     Called by *egterg:
     cdiaghg      :      1.46s CPU      1.54s WALL (    8522 calls)
     h_psi        :      7.50s CPU      7.90s WALL (    8580 calls)
     s_psi        :      0.16s CPU      0.17s WALL (    8580 calls)
     g_psi        :      0.06s CPU      0.06s WALL (    5100 calls)

     Called by h_psi:
     h_psi:calbec :      0.25s CPU      0.26s WALL (    8580 calls)
     vloc_psi     :      7.00s CPU      7.37s WALL (    8580 calls)
     add_vuspsi   :      0.17s CPU      0.18s WALL (    8580 calls)

     General routines
     calbec       :      0.34s CPU      0.36s WALL (   12292 calls)
     fft          :      0.04s CPU      0.04s WALL (     685 calls)
     ffts         :      0.00s CPU      0.00s WALL (      59 calls)
     fftw         :      7.67s CPU      8.08s WALL (  234812 calls)
 
     Parallel routines
 
     PWSCF        :     17.37s CPU     18.35s WALL

 
   This run was terminated on:  12:43:49  17Apr2025            

=------------------------------------------------------------------------------=
   JOB DONE.
=------------------------------------------------------------------------------=
