
     Program PWSCF v.6.0 (svn rev. 13079) starts on 18Apr2025 at 12:16:37 

     This program is part of the open-source Quantum ESPRESSO suite
     for quantum simulation of materials; please cite
         "P. Giannozzi et al., J. Phys.:Condens. Matter 21 395502 (2009);
          URL http://www.quantum-espresso.org", 
     in publications or presentations arising from this work. More details at
     http://www.quantum-espresso.org/quote

     Parallel version (MPI), running on     1 processors
     Reading input from TiO_v2.vc.in
Warning: card ATOMIC_SPECIES ignored
Warning: card     TI  47.867   TI.PBE-SPN-KJPAW_PSL.1.0.0.UPF ignored
Warning: card     O   15.999   O.PBE-N-KJPAW_PSL.1.0.0.UPF ignored
Warning: card CELL_PARAMETERS (ALAT) ignored
Warning: card 	0.000000000000000   1.000000000000000  1.000000000000000 ignored
Warning: card 	1.000000000000000   0.000000000000000  1.000000000000000 ignored
Warning: card         1.000000000000000   1.000000000000000  0.000000000000000 ignored
Warning: card ATOMIC_POSITIONS (CRYSTAL) ignored
Warning: card TI  0.000000000000      0.00000000000000   0.000000000000000000 ignored
Warning: card O   0.5000000000000001  0.5000000000000001  0.5 ignored
Warning: card K_POINTS AUTOMATIC ignored
Warning: card 10 10 10 0 0 0 ignored

     Current dimensions of program PWSCF are:
     Max number of different atomic species (ntypx) = 10
     Max number of k-points (npk) =  40000
     Max angular momentum in pseudopotentials (lmaxx) =  3

 %%%%%%%%%%%%%%%%%%%%%%%%%%%%%%%%%%%%%%%%%%%%%%%%%%%%%%%%%%%%%%%%%%%%%%%%%%%%%%
     Error in routine read_cards_pw (1):
     atomic species info missing
 %%%%%%%%%%%%%%%%%%%%%%%%%%%%%%%%%%%%%%%%%%%%%%%%%%%%%%%%%%%%%%%%%%%%%%%%%%%%%%

     stopping ...
--------------------------------------------------------------------------
MPI_ABORT was invoked on rank 0 in communicator MPI_COMM_WORLD
with errorcode 1.

NOTE: invoking MPI_ABORT causes Open MPI to kill all MPI processes.
You may or may not see output from other processes, depending on
exactly when Open MPI kills them.
--------------------------------------------------------------------------
