
     Program PWSCF v.7.2 starts on 24Mar2025 at 10:23:20 

     This program is part of the open-source Quantum ESPRESSO suite
     for quantum simulation of materials; please cite
         "P. Giannozzi et al., J. Phys.:Condens. Matter 21 395502 (2009);
         "P. Giannozzi et al., J. Phys.:Condens. Matter 29 465901 (2017);
         "P. Giannozzi et al., J. Chem. Phys. 152 154105 (2020);
          URL http://www.quantum-espresso.org", 
     in publications or presentations arising from this work. More details at
     http://www.quantum-espresso.org/quote

     Parallel version (MPI), running on    16 processors

     MPI processes distributed on     1 nodes
     150828 MiB available memory on the printing compute node when the environment starts
 
     Waiting for input...
     Reading input from standard input

     Current dimensions of program PWSCF are:
     Max number of different atomic species (ntypx) = 10
     Max number of k-points (npk) =  40000
     Max angular momentum in pseudopotentials (lmaxx) =  4
     file Pb.pz-dn-kjpaw_psl.0.2.2.UPF: wavefunction(s)  6S renormalized
     file Ti.pz-spn-kjpaw_psl.1.0.0.UPF: wavefunction(s)  3S 3P 3D renormalized
     file O.pz-n-kjpaw_psl.0.1.UPF: wavefunction(s)  2P renormalized
     Message from routine setup:
     using ibrav=0 with symmetry is DISCOURAGED, use correct ibrav instead
 
     R & G space division:  proc/nbgrp/npool/nimage =      16
     Subspace diagonalization in iterative solution of the eigenvalue problem:
     a serial algorithm will be used

 
     Parallelization info
     --------------------
     sticks:   dense  smooth     PW     G-vecs:    dense   smooth      PW
     Min          62      62     18                 2958     2958     468
     Max          64      64     19                 2963     2963     475
     Sum        1005    1005    293                47355    47355    7539
 
     Using Slab Decomposition
 


     bravais-lattice index     =            0
     lattice parameter (alat)  =       7.5811  a.u.
     unit-cell volume          =     856.8912 (a.u.)^3
     number of atoms/cell      =           12
     number of atomic types    =            3
     number of electrons       =       104.00
     number of Kohn-Sham states=           66
     kinetic-energy cutoff     =      55.1200  Ry
     charge density cutoff     =     220.4800  Ry
     scf convergence threshold =      1.0E-20
     mixing beta               =       0.2000
     number of iterations used =            8  plain     mixing
     Exchange-correlation= SLA  PZ   NOGX NOGC
                           (   1   1   0   0   0   0   0)

     celldm(1)=   7.581090  celldm(2)=   0.000000  celldm(3)=   0.000000
     celldm(4)=   0.000000  celldm(5)=   0.000000  celldm(6)=   0.000000

     crystal axes: (cart. coord. in units of alat)
               a(1) = (   0.998557   0.000000   0.000000 )  
               a(2) = (   0.000000   0.998557   0.000000 )  
               a(3) = (   0.000000   0.000000   1.972354 )  

     reciprocal axes: (cart. coord. in units 2 pi/alat)
               b(1) = (  1.001445  0.000000  0.000000 )  
               b(2) = (  0.000000  1.001445  0.000000 )  
               b(3) = (  0.000000  0.000000  0.507008 )  


     PseudoPot. # 1 for Pb read from file:
     ./Pb.pz-dn-kjpaw_psl.0.2.2.UPF
     MD5 check sum: 6403c4d76206297a192894ff2d9ba08a
     Pseudo is Projector augmented-wave + core cor, Zval = 14.0
     Generated using "atomic" code by A. Dal Corso  v.5.0.2 svn rev. 9415
     Shape of augmentation charge: PSQ
     Using radial grid of 1281 points,  6 beta functions with: 
                l(1) =   0
                l(2) =   0
                l(3) =   1
                l(4) =   1
                l(5) =   2
                l(6) =   2
     Q(r) pseudized with 0 coefficients 


     PseudoPot. # 2 for Ti read from file:
     ./Ti.pz-spn-kjpaw_psl.1.0.0.UPF
     MD5 check sum: d738bfca771ecfdd01037dc8ee1e6b9b
     Pseudo is Projector augmented-wave + core cor, Zval = 12.0
     Generated using &quot;atomic&quot; code by A. Dal Corso  v.6.2.2
     Shape of augmentation charge: PSQ
     Using radial grid of 1177 points,  6 beta functions with: 
                l(1) =   0
                l(2) =   0
                l(3) =   1
                l(4) =   1
                l(5) =   2
                l(6) =   2
     Q(r) pseudized with 0 coefficients 


     PseudoPot. # 3 for O  read from file:
     ./O.pz-n-kjpaw_psl.0.1.UPF
     MD5 check sum: 6b8961753bc530cd482b40fd8ffb4c91
     Pseudo is Projector augmented-wave + core cor, Zval =  6.0
     Generated using "atomic" code by A. Dal Corso  v.5.0.2 svn rev. 9415
     Shape of augmentation charge: BESSEL
     Using radial grid of 1095 points,  4 beta functions with: 
                l(1) =   0
                l(2) =   0
                l(3) =   1
                l(4) =   1
     Q(r) pseudized with 0 coefficients 


     atomic species   valence    mass     pseudopotential
        Pb            14.00   207.20000     Pb( 1.00)
        Ti            12.00    47.86700     Ti( 1.00)
        O              6.00    15.99900     O ( 1.00)

      4 Sym. Ops. (no inversion) found



   Cartesian axes

     site n.     atom                  positions (alat units)
         1           Pb  tau(   1) = (   0.0068833   0.0068833   0.0000000  )
         2           Ti  tau(   2) = (   0.5060078   0.5060078   0.4690879  )
         3           O   tau(   3) = (   0.5059272   0.5059272   0.0000000  )
         4           O   tau(   4) = (   0.0067093   0.5059476   0.4785949  )
         5           O   tau(   5) = (   0.5059476   0.0067093   0.4785949  )
         6           Ti  tau(   6) = (   0.5059246   0.0067168   0.9861772  )
         7           Ti  tau(   7) = (   0.0067168   0.5059246   0.9861772  )
         8           O   tau(   8) = (   1.0052237   1.0052237   0.9861772  )
         9           O   tau(   9) = (   0.5059955   0.5059955   0.9861772  )
        10           Ti  tau(  10) = (   0.5060078   0.5060078   1.5032666  )
        11           O   tau(  11) = (   0.5059476   0.0067093   1.4937595  )
        12           O   tau(  12) = (   0.0067093   0.5059476   1.4937595  )

     number of k points=   365  Methfessel-Paxton smearing, width (Ry)=  0.0200

     Number of k-points >= 100: set verbosity='high' to print them.

     Dense  grid:    47355 G-vectors     FFT dimensions: (  36,  36,  72)

     Estimated max dynamical RAM per process >     151.94 MB

     Estimated total dynamical RAM >       2.37 GB

     Check: negative core charge=   -0.000027

     Initial potential from superposition of free atoms

     starting charge     103.9932, renormalised to     104.0000
     Starting wfcs are   77 randomized atomic wfcs
     Checking if some PAW data can be deallocated... 

     total cpu time spent up to now is        7.7 secs

     Self-consistent Calculation

     iteration #  1     ecut=    55.12 Ry     beta= 0.20
     Davidson diagonalization with overlap
     ethr =  1.00E-02,  avg # of iterations =  2.0

     total cpu time spent up to now is       26.8 secs

     total energy              =   -1854.45421611 Ry
     estimated scf accuracy    <       3.61466029 Ry

     iteration #  2     ecut=    55.12 Ry     beta= 0.20
     Davidson diagonalization with overlap
     ethr =  3.48E-03,  avg # of iterations =  2.1

     total cpu time spent up to now is       46.3 secs

     total energy              =   -1854.62806104 Ry
     estimated scf accuracy    <       0.50354113 Ry

     iteration #  3     ecut=    55.12 Ry     beta= 0.20
     Davidson diagonalization with overlap
     ethr =  4.84E-04,  avg # of iterations =  3.4

     total cpu time spent up to now is       72.6 secs

     total energy              =   -1854.69820617 Ry
     estimated scf accuracy    <       0.31644107 Ry

     iteration #  4     ecut=    55.12 Ry     beta= 0.20
     Davidson diagonalization with overlap
     ethr =  3.04E-04,  avg # of iterations =  3.7

     total cpu time spent up to now is       96.2 secs

     total energy              =   -1854.70414240 Ry
     estimated scf accuracy    <       0.05837541 Ry

     iteration #  5     ecut=    55.12 Ry     beta= 0.20
     Davidson diagonalization with overlap
     ethr =  5.61E-05,  avg # of iterations =  5.9

     total cpu time spent up to now is      132.6 secs

     total energy              =   -1854.70898982 Ry
     estimated scf accuracy    <       0.02161327 Ry

     iteration #  6     ecut=    55.12 Ry     beta= 0.20
     Davidson diagonalization with overlap
     ethr =  2.08E-05,  avg # of iterations =  3.0

     total cpu time spent up to now is      155.0 secs

     total energy              =   -1854.70903577 Ry
     estimated scf accuracy    <       0.00624535 Ry

     iteration #  7     ecut=    55.12 Ry     beta= 0.20
     Davidson diagonalization with overlap
     c_bands:  1 eigenvalues not converged
     ethr =  6.01E-06,  avg # of iterations =  3.2

     total cpu time spent up to now is      179.5 secs

     total energy              =   -1854.70921780 Ry
     estimated scf accuracy    <       0.00296373 Ry

     iteration #  8     ecut=    55.12 Ry     beta= 0.20
     Davidson diagonalization with overlap
     ethr =  2.85E-06,  avg # of iterations =  4.0

     total cpu time spent up to now is      205.0 secs

     total energy              =   -1854.70957723 Ry
     estimated scf accuracy    <       0.00017406 Ry

     iteration #  9     ecut=    55.12 Ry     beta= 0.20
     Davidson diagonalization with overlap
     ethr =  1.67E-07,  avg # of iterations =  4.3

     total cpu time spent up to now is      237.5 secs

     total energy              =   -1854.70963600 Ry
     estimated scf accuracy    <       0.00005665 Ry

     iteration # 10     ecut=    55.12 Ry     beta= 0.20
     Davidson diagonalization with overlap
     ethr =  5.45E-08,  avg # of iterations =  1.0

     total cpu time spent up to now is      252.8 secs

     total energy              =   -1854.70963348 Ry
     estimated scf accuracy    <       0.00001426 Ry

     iteration # 11     ecut=    55.12 Ry     beta= 0.20
     Davidson diagonalization with overlap
     ethr =  1.37E-08,  avg # of iterations =  3.0

     total cpu time spent up to now is      276.9 secs

     total energy              =   -1854.70963555 Ry
     estimated scf accuracy    <       0.00000183 Ry

     iteration # 12     ecut=    55.12 Ry     beta= 0.20
     Davidson diagonalization with overlap
     ethr =  1.76E-09,  avg # of iterations =  2.1

     total cpu time spent up to now is      296.3 secs

     total energy              =   -1854.70963572 Ry
     estimated scf accuracy    <       0.00000034 Ry

     iteration # 13     ecut=    55.12 Ry     beta= 0.20
     Davidson diagonalization with overlap
     ethr =  3.28E-10,  avg # of iterations =  3.1

     total cpu time spent up to now is      318.9 secs

     total energy              =   -1854.70963572 Ry
     estimated scf accuracy    <       0.00000015 Ry

     iteration # 14     ecut=    55.12 Ry     beta= 0.20
     Davidson diagonalization with overlap
     ethr =  1.44E-10,  avg # of iterations =  3.6

     total cpu time spent up to now is      344.5 secs

     total energy              =   -1854.70963573 Ry
     estimated scf accuracy    <       0.00000002 Ry

     iteration # 15     ecut=    55.12 Ry     beta= 0.20
     Davidson diagonalization with overlap
     ethr =  1.72E-11,  avg # of iterations =  2.9

     total cpu time spent up to now is      367.4 secs

     total energy              =   -1854.70963573 Ry
     estimated scf accuracy    <          3.2E-09 Ry

     iteration # 16     ecut=    55.12 Ry     beta= 0.20
     Davidson diagonalization with overlap
     ethr =  3.11E-12,  avg # of iterations =  2.8

     total cpu time spent up to now is      389.2 secs

     total energy              =   -1854.70963573 Ry
     estimated scf accuracy    <          1.2E-09 Ry

     iteration # 17     ecut=    55.12 Ry     beta= 0.20
     Davidson diagonalization with overlap
     ethr =  1.12E-12,  avg # of iterations =  3.7

     total cpu time spent up to now is      416.5 secs

     total energy              =   -1854.70963573 Ry
     estimated scf accuracy    <          4.6E-10 Ry

     iteration # 18     ecut=    55.12 Ry     beta= 0.20
     Davidson diagonalization with overlap
     ethr =  4.42E-13,  avg # of iterations =  2.0

     total cpu time spent up to now is      434.8 secs

     total energy              =   -1854.70963573 Ry
     estimated scf accuracy    <          8.8E-11 Ry

     iteration # 19     ecut=    55.12 Ry     beta= 0.20
     Davidson diagonalization with overlap
     ethr =  1.00E-13,  avg # of iterations =  4.0

     total cpu time spent up to now is      462.9 secs

     total energy              =   -1854.70963573 Ry
     estimated scf accuracy    <          5.9E-11 Ry

     iteration # 20     ecut=    55.12 Ry     beta= 0.20
     Davidson diagonalization with overlap
     ethr =  1.00E-13,  avg # of iterations =  2.0

     total cpu time spent up to now is      481.1 secs

     total energy              =   -1854.70963573 Ry
     estimated scf accuracy    <          7.9E-12 Ry

     iteration # 21     ecut=    55.12 Ry     beta= 0.20
     Davidson diagonalization with overlap
     ethr =  1.00E-13,  avg # of iterations =  3.0

     total cpu time spent up to now is      503.6 secs

     total energy              =   -1854.70963573 Ry
     estimated scf accuracy    <          3.0E-11 Ry

     iteration # 22     ecut=    55.12 Ry     beta= 0.20
     Davidson diagonalization with overlap
     ethr =  1.00E-13,  avg # of iterations =  1.0

     total cpu time spent up to now is      518.8 secs

     total energy              =   -1854.70963573 Ry
     estimated scf accuracy    <          7.9E-12 Ry

     iteration # 23     ecut=    55.12 Ry     beta= 0.20
     Davidson diagonalization with overlap
     ethr =  1.00E-13,  avg # of iterations =  1.0

     total cpu time spent up to now is      534.0 secs

     total energy              =   -1854.70963573 Ry
     estimated scf accuracy    <          3.2E-13 Ry

     iteration # 24     ecut=    55.12 Ry     beta= 0.20
     Davidson diagonalization with overlap
     ethr =  1.00E-13,  avg # of iterations =  1.0

     total cpu time spent up to now is      549.2 secs

     total energy              =   -1854.70963573 Ry
     estimated scf accuracy    <          3.2E-13 Ry

     iteration # 25     ecut=    55.12 Ry     beta= 0.20
     Davidson diagonalization with overlap
     ethr =  1.00E-13,  avg # of iterations =  1.0

     total cpu time spent up to now is      564.4 secs

     total energy              =   -1854.70963573 Ry
     estimated scf accuracy    <          4.2E-13 Ry

     iteration # 26     ecut=    55.12 Ry     beta= 0.20
     Davidson diagonalization with overlap
     ethr =  1.00E-13,  avg # of iterations =  1.0

     total cpu time spent up to now is      579.6 secs

     total energy              =   -1854.70963573 Ry
     estimated scf accuracy    <          6.4E-15 Ry

     iteration # 27     ecut=    55.12 Ry     beta= 0.20
     Davidson diagonalization with overlap
     ethr =  1.00E-13,  avg # of iterations =  1.0

     total cpu time spent up to now is      594.7 secs

     total energy              =   -1854.70963573 Ry
     estimated scf accuracy    <          2.3E-15 Ry

     iteration # 28     ecut=    55.12 Ry     beta= 0.20
     Davidson diagonalization with overlap
     ethr =  1.00E-13,  avg # of iterations =  1.0

     total cpu time spent up to now is      609.9 secs

     total energy              =   -1854.70963573 Ry
     estimated scf accuracy    <          5.8E-16 Ry

     iteration # 29     ecut=    55.12 Ry     beta= 0.20
     Davidson diagonalization with overlap
     ethr =  1.00E-13,  avg # of iterations =  1.0

     total cpu time spent up to now is      625.0 secs

     total energy              =   -1854.70963573 Ry
     estimated scf accuracy    <          1.4E-15 Ry

     iteration # 30     ecut=    55.12 Ry     beta= 0.20
     Davidson diagonalization with overlap
     ethr =  1.00E-13,  avg # of iterations =  1.0

     total cpu time spent up to now is      640.3 secs

     total energy              =   -1854.70963573 Ry
     estimated scf accuracy    <          1.5E-16 Ry

     iteration # 31     ecut=    55.12 Ry     beta= 0.20
     Davidson diagonalization with overlap
     ethr =  1.00E-13,  avg # of iterations =  1.0

     total cpu time spent up to now is      655.5 secs

     total energy              =   -1854.70963573 Ry
     estimated scf accuracy    <          2.1E-16 Ry

     iteration # 32     ecut=    55.12 Ry     beta= 0.20
     Davidson diagonalization with overlap
     ethr =  1.00E-13,  avg # of iterations =  1.0

     total cpu time spent up to now is      670.7 secs

     total energy              =   -1854.70963573 Ry
     estimated scf accuracy    <          4.7E-16 Ry

     iteration # 33     ecut=    55.12 Ry     beta= 0.20
     Davidson diagonalization with overlap
     ethr =  1.00E-13,  avg # of iterations =  1.0

     total cpu time spent up to now is      685.8 secs

     total energy              =   -1854.70963573 Ry
     estimated scf accuracy    <          5.8E-15 Ry

     iteration # 34     ecut=    55.12 Ry     beta= 0.20
     Davidson diagonalization with overlap
     ethr =  1.00E-13,  avg # of iterations =  1.0

     total cpu time spent up to now is      701.0 secs

     total energy              =   -1854.70963573 Ry
     estimated scf accuracy    <          6.6E-15 Ry

     iteration # 35     ecut=    55.12 Ry     beta= 0.20
     Davidson diagonalization with overlap
     ethr =  1.00E-13,  avg # of iterations =  1.0

     total cpu time spent up to now is      716.2 secs

     total energy              =   -1854.70963573 Ry
     estimated scf accuracy    <          9.9E-15 Ry

     iteration # 36     ecut=    55.12 Ry     beta= 0.20
     Davidson diagonalization with overlap
     ethr =  1.00E-13,  avg # of iterations =  1.0

     total cpu time spent up to now is      731.4 secs

     total energy              =   -1854.70963573 Ry
     estimated scf accuracy    <          1.2E-14 Ry

     iteration # 37     ecut=    55.12 Ry     beta= 0.20
     Davidson diagonalization with overlap
     ethr =  1.00E-13,  avg # of iterations =  1.0

     total cpu time spent up to now is      746.5 secs

     total energy              =   -1854.70963573 Ry
     estimated scf accuracy    <          7.5E-15 Ry

     iteration # 38     ecut=    55.12 Ry     beta= 0.20
     Davidson diagonalization with overlap
     ethr =  1.00E-13,  avg # of iterations =  1.0

     total cpu time spent up to now is      761.8 secs

     total energy              =   -1854.70963573 Ry
     estimated scf accuracy    <          8.1E-15 Ry

     iteration # 39     ecut=    55.12 Ry     beta= 0.20
     Davidson diagonalization with overlap
     ethr =  1.00E-13,  avg # of iterations =  1.0

     total cpu time spent up to now is      777.1 secs

     total energy              =   -1854.70963573 Ry
     estimated scf accuracy    <          8.0E-15 Ry

     iteration # 40     ecut=    55.12 Ry     beta= 0.20
     Davidson diagonalization with overlap
     ethr =  1.00E-13,  avg # of iterations =  1.0

     total cpu time spent up to now is      792.3 secs

     total energy              =   -1854.70963573 Ry
     estimated scf accuracy    <          1.1E-14 Ry

     iteration # 41     ecut=    55.12 Ry     beta= 0.20
     Davidson diagonalization with overlap
     ethr =  1.00E-13,  avg # of iterations =  1.0

     total cpu time spent up to now is      807.6 secs

     total energy              =   -1854.70963573 Ry
     estimated scf accuracy    <          7.5E-15 Ry

     iteration # 42     ecut=    55.12 Ry     beta= 0.20
     Davidson diagonalization with overlap
     ethr =  1.00E-13,  avg # of iterations =  1.0

     total cpu time spent up to now is      822.8 secs

     total energy              =   -1854.70963573 Ry
     estimated scf accuracy    <          1.0E-14 Ry

     iteration # 43     ecut=    55.12 Ry     beta= 0.20
     Davidson diagonalization with overlap
     ethr =  1.00E-13,  avg # of iterations =  1.0

     total cpu time spent up to now is      838.1 secs

     total energy              =   -1854.70963573 Ry
     estimated scf accuracy    <          1.4E-15 Ry

     iteration # 44     ecut=    55.12 Ry     beta= 0.20
     Davidson diagonalization with overlap
     ethr =  1.00E-13,  avg # of iterations =  1.0

     total cpu time spent up to now is      853.3 secs

     total energy              =   -1854.70963573 Ry
     estimated scf accuracy    <          1.2E-16 Ry

     iteration # 45     ecut=    55.12 Ry     beta= 0.20
     Davidson diagonalization with overlap
     ethr =  1.00E-13,  avg # of iterations =  1.0

     total cpu time spent up to now is      868.6 secs

     total energy              =   -1854.70963573 Ry
     estimated scf accuracy    <          2.9E-16 Ry

     iteration # 46     ecut=    55.12 Ry     beta= 0.20
     Davidson diagonalization with overlap
     ethr =  1.00E-13,  avg # of iterations =  1.0

     total cpu time spent up to now is      883.8 secs

     total energy              =   -1854.70963573 Ry
     estimated scf accuracy    <          3.5E-17 Ry

     iteration # 47     ecut=    55.12 Ry     beta= 0.20
     Davidson diagonalization with overlap
     ethr =  1.00E-13,  avg # of iterations =  1.0

     total cpu time spent up to now is      899.1 secs

     total energy              =   -1854.70963573 Ry
     estimated scf accuracy    <          3.6E-17 Ry

     iteration # 48     ecut=    55.12 Ry     beta= 0.20
     Davidson diagonalization with overlap
     ethr =  1.00E-13,  avg # of iterations =  1.0

     total cpu time spent up to now is      914.4 secs

     total energy              =   -1854.70963573 Ry
     estimated scf accuracy    <          1.0E-18 Ry

     iteration # 49     ecut=    55.12 Ry     beta= 0.20
     Davidson diagonalization with overlap
     ethr =  1.00E-13,  avg # of iterations =  1.0

     total cpu time spent up to now is      929.6 secs

     total energy              =   -1854.70963573 Ry
     estimated scf accuracy    <          1.9E-19 Ry

     iteration # 50     ecut=    55.12 Ry     beta= 0.20
     Davidson diagonalization with overlap
     ethr =  1.00E-13,  avg # of iterations =  1.0

     total cpu time spent up to now is      944.9 secs

     total energy              =   -1854.70963573 Ry
     estimated scf accuracy    <          2.2E-18 Ry

     iteration # 51     ecut=    55.12 Ry     beta= 0.20
     Davidson diagonalization with overlap
     ethr =  1.00E-13,  avg # of iterations =  1.0

     total cpu time spent up to now is      960.1 secs

     total energy              =   -1854.70963573 Ry
     estimated scf accuracy    <          3.6E-20 Ry

     iteration # 52     ecut=    55.12 Ry     beta= 0.20
     Davidson diagonalization with overlap
     ethr =  1.00E-13,  avg # of iterations =  1.0

     total cpu time spent up to now is      975.4 secs

     total energy              =   -1854.70963573 Ry
     estimated scf accuracy    <          3.0E-19 Ry

     iteration # 53     ecut=    55.12 Ry     beta= 0.20
     Davidson diagonalization with overlap
     ethr =  1.00E-13,  avg # of iterations =  1.0

     total cpu time spent up to now is      990.7 secs

     total energy              =   -1854.70963573 Ry
     estimated scf accuracy    <          1.8E-19 Ry

     iteration # 54     ecut=    55.12 Ry     beta= 0.20
     Davidson diagonalization with overlap
     ethr =  1.00E-13,  avg # of iterations =  1.0

     total cpu time spent up to now is     1006.0 secs

     total energy              =   -1854.70963573 Ry
     estimated scf accuracy    <          6.3E-20 Ry

     iteration # 55     ecut=    55.12 Ry     beta= 0.20
     Davidson diagonalization with overlap
     ethr =  1.00E-13,  avg # of iterations =  1.0

     total cpu time spent up to now is     1021.3 secs

     total energy              =   -1854.70963573 Ry
     estimated scf accuracy    <          2.0E-19 Ry

     iteration # 56     ecut=    55.12 Ry     beta= 0.20
     Davidson diagonalization with overlap
     ethr =  1.00E-13,  avg # of iterations =  1.0

     total cpu time spent up to now is     1036.5 secs

     total energy              =   -1854.70963573 Ry
     estimated scf accuracy    <          5.9E-19 Ry

     iteration # 57     ecut=    55.12 Ry     beta= 0.20
     Davidson diagonalization with overlap
     ethr =  1.00E-13,  avg # of iterations =  1.0

     total cpu time spent up to now is     1051.8 secs

     total energy              =   -1854.70963573 Ry
     estimated scf accuracy    <          8.0E-19 Ry

     iteration # 58     ecut=    55.12 Ry     beta= 0.20
     Davidson diagonalization with overlap
     ethr =  1.00E-13,  avg # of iterations =  1.0

     total cpu time spent up to now is     1067.0 secs

     total energy              =   -1854.70963573 Ry
     estimated scf accuracy    <          1.1E-18 Ry

     iteration # 59     ecut=    55.12 Ry     beta= 0.20
     Davidson diagonalization with overlap
     ethr =  1.00E-13,  avg # of iterations =  1.0

     total cpu time spent up to now is     1082.3 secs

     total energy              =   -1854.70963573 Ry
     estimated scf accuracy    <          1.1E-18 Ry

     iteration # 60     ecut=    55.12 Ry     beta= 0.20
     Davidson diagonalization with overlap
     ethr =  1.00E-13,  avg # of iterations =  1.0

     total cpu time spent up to now is     1097.6 secs

     total energy              =   -1854.70963573 Ry
     estimated scf accuracy    <          1.2E-18 Ry

     iteration # 61     ecut=    55.12 Ry     beta= 0.20
     Davidson diagonalization with overlap
     ethr =  1.00E-13,  avg # of iterations =  1.0

     total cpu time spent up to now is     1112.9 secs

     total energy              =   -1854.70963573 Ry
     estimated scf accuracy    <          1.1E-18 Ry

     iteration # 62     ecut=    55.12 Ry     beta= 0.20
     Davidson diagonalization with overlap
     ethr =  1.00E-13,  avg # of iterations =  1.0

     total cpu time spent up to now is     1128.1 secs

     total energy              =   -1854.70963573 Ry
     estimated scf accuracy    <          1.6E-18 Ry

     iteration # 63     ecut=    55.12 Ry     beta= 0.20
     Davidson diagonalization with overlap
     ethr =  1.00E-13,  avg # of iterations =  1.0

     total cpu time spent up to now is     1143.4 secs

     total energy              =   -1854.70963573 Ry
     estimated scf accuracy    <          9.9E-19 Ry

     iteration # 64     ecut=    55.12 Ry     beta= 0.20
     Davidson diagonalization with overlap
     ethr =  1.00E-13,  avg # of iterations =  1.0

     total cpu time spent up to now is     1158.7 secs

     total energy              =   -1854.70963573 Ry
     estimated scf accuracy    <          1.7E-18 Ry

     iteration # 65     ecut=    55.12 Ry     beta= 0.20
     Davidson diagonalization with overlap
     ethr =  1.00E-13,  avg # of iterations =  1.0

     total cpu time spent up to now is     1174.0 secs

     total energy              =   -1854.70963573 Ry
     estimated scf accuracy    <          1.4E-18 Ry

     iteration # 66     ecut=    55.12 Ry     beta= 0.20
     Davidson diagonalization with overlap
     ethr =  1.00E-13,  avg # of iterations =  1.0

     total cpu time spent up to now is     1189.3 secs

     total energy              =   -1854.70963573 Ry
     estimated scf accuracy    <          2.5E-19 Ry

     iteration # 67     ecut=    55.12 Ry     beta= 0.20
     Davidson diagonalization with overlap
     ethr =  1.00E-13,  avg # of iterations =  1.0

     total cpu time spent up to now is     1204.5 secs

     total energy              =   -1854.70963573 Ry
     estimated scf accuracy    <          5.9E-19 Ry

     iteration # 68     ecut=    55.12 Ry     beta= 0.20
     Davidson diagonalization with overlap
     ethr =  1.00E-13,  avg # of iterations =  1.0

     total cpu time spent up to now is     1219.8 secs

     total energy              =   -1854.70963573 Ry
     estimated scf accuracy    <          9.1E-19 Ry

     iteration # 69     ecut=    55.12 Ry     beta= 0.20
     Davidson diagonalization with overlap
     ethr =  1.00E-13,  avg # of iterations =  1.0

     total cpu time spent up to now is     1235.1 secs

     total energy              =   -1854.70963573 Ry
     estimated scf accuracy    <          6.6E-19 Ry

     iteration # 70     ecut=    55.12 Ry     beta= 0.20
     Davidson diagonalization with overlap
     ethr =  1.00E-13,  avg # of iterations =  1.0

     total cpu time spent up to now is     1250.4 secs

     total energy              =   -1854.70963573 Ry
     estimated scf accuracy    <          4.7E-19 Ry

     iteration # 71     ecut=    55.12 Ry     beta= 0.20
     Davidson diagonalization with overlap
     ethr =  1.00E-13,  avg # of iterations =  1.0

     total cpu time spent up to now is     1265.7 secs

     End of self-consistent calculation

     Number of k-points >= 100: set verbosity='high' to print the bands.

     the Fermi energy is    14.2000 ev

!    total energy              =   -1854.70963573 Ry
     total all-electron energy =    -49606.374833 Ry
     estimated scf accuracy    <          9.8E-21 Ry
     smearing contrib. (-TS)   =       0.00094749 Ry
     internal energy E=F+TS    =   -1854.71058322 Ry

     The total energy is F=E-TS. E is the sum of the following terms:
     one-electron contribution =    -237.21770865 Ry
     hartree contribution      =     188.29510136 Ry
     xc contribution           =    -169.29028544 Ry
     ewald contribution        =    -621.82855913 Ry
     one-center paw contrib.   =   -1014.66913137 Ry

     convergence has been achieved in  71 iterations

     Forces acting on atoms (cartesian axes, Ry/au):

     atom    1 type  1   force =     0.00000581    0.00000581    0.00000000
     atom    2 type  2   force =    -0.00001656   -0.00001656    0.00007778
     atom    3 type  3   force =     0.00000662    0.00000662    0.00000000
     atom    4 type  3   force =    -0.00001263    0.00001689   -0.00000022
     atom    5 type  3   force =     0.00001689   -0.00001263   -0.00000022
     atom    6 type  2   force =     0.00003122   -0.00001065    0.00000000
     atom    7 type  2   force =    -0.00001065    0.00003122    0.00000000
     atom    8 type  3   force =    -0.00001409   -0.00001409    0.00000000
     atom    9 type  3   force =     0.00000568    0.00000568    0.00000000
     atom   10 type  2   force =    -0.00001656   -0.00001656   -0.00007778
     atom   11 type  3   force =     0.00001689   -0.00001263    0.00000022
     atom   12 type  3   force =    -0.00001263    0.00001689    0.00000022
     The non-local contrib.  to forces
     atom    1 type  1   force =     0.00051923    0.00051923    0.00000000
     atom    2 type  2   force =    -0.00001904   -0.00001904    0.06581762
     atom    3 type  3   force =    -0.00017164   -0.00017164    0.00000000
     atom    4 type  3   force =    -0.00009890   -0.00015896    0.36563222
     atom    5 type  3   force =    -0.00015896   -0.00009890    0.36563222
     atom    6 type  2   force =    -0.00009662    0.00008885   -0.00000000
     atom    7 type  2   force =     0.00008885   -0.00009662    0.00000000
     atom    8 type  3   force =     0.00017982    0.00017982    0.00000000
     atom    9 type  3   force =    -0.00015541   -0.00015541    0.00000000
     atom   10 type  2   force =    -0.00001904   -0.00001904   -0.06581762
     atom   11 type  3   force =    -0.00015896   -0.00009890   -0.36563222
     atom   12 type  3   force =    -0.00009890   -0.00015896   -0.36563222
     The ionic contribution  to forces
     atom    1 type  1   force =    -0.01375075   -0.01375075   -0.00000000
     atom    2 type  2   force =     0.00396782    0.00396782  -15.41086375
     atom    3 type  3   force =     0.00353580    0.00353580    0.00000000
     atom    4 type  3   force =    -0.00060826    0.00229807  -10.22106566
     atom    5 type  3   force =     0.00229807   -0.00060826  -10.22106566
     atom    6 type  2   force =     0.00163374   -0.00173799    0.00000000
     atom    7 type  2   force =    -0.00173799    0.00163374    0.00000000
     atom    8 type  3   force =    -0.00240266   -0.00240266    0.00000000
     atom    9 type  3   force =     0.00140661    0.00140661    0.00000000
     atom   10 type  2   force =     0.00396782    0.00396782   15.41086375
     atom   11 type  3   force =     0.00229807   -0.00060826   10.22106566
     atom   12 type  3   force =    -0.00060826    0.00229807   10.22106566
     The local contribution  to forces
     atom    1 type  1   force =     0.01326230    0.01326230   -0.00000000
     atom    2 type  2   force =    -0.00396205   -0.00396205   15.33431354
     atom    3 type  3   force =    -0.00335620   -0.00335620   -0.00000000
     atom    4 type  3   force =     0.00069940   -0.00212056    9.85830054
     atom    5 type  3   force =    -0.00212056    0.00069940    9.85830054
     atom    6 type  2   force =    -0.00151687    0.00163440    0.00000000
     atom    7 type  2   force =     0.00163440   -0.00151687    0.00000000
     atom    8 type  3   force =     0.00221530    0.00221530    0.00000000
     atom    9 type  3   force =    -0.00123994   -0.00123994   -0.00000000
     atom   10 type  2   force =    -0.00396205   -0.00396205  -15.33431354
     atom   11 type  3   force =    -0.00212056    0.00069940   -9.85830054
     atom   12 type  3   force =     0.00069940   -0.00212056   -9.85830054
     The core correction contribution to forces
     atom    1 type  1   force =    -0.00002341   -0.00002341    0.00000000
     atom    2 type  2   force =    -0.00000172   -0.00000172    0.01081037
     atom    3 type  3   force =     0.00000022    0.00000022    0.00000000
     atom    4 type  3   force =    -0.00000331   -0.00000009   -0.00286732
     atom    5 type  3   force =    -0.00000009   -0.00000331   -0.00286732
     atom    6 type  2   force =     0.00001253    0.00000565   -0.00000000
     atom    7 type  2   force =     0.00000565    0.00001253   -0.00000000
     atom    8 type  3   force =    -0.00000500   -0.00000500    0.00000000
     atom    9 type  3   force =    -0.00000401   -0.00000401   -0.00000000
     atom   10 type  2   force =    -0.00000172   -0.00000172   -0.01081037
     atom   11 type  3   force =    -0.00000009   -0.00000331    0.00286732
     atom   12 type  3   force =    -0.00000331   -0.00000009    0.00286732
     The Hubbard contrib.    to forces
     atom    1 type  1   force =     0.00000000    0.00000000    0.00000000
     atom    2 type  2   force =     0.00000000    0.00000000    0.00000000
     atom    3 type  3   force =     0.00000000    0.00000000    0.00000000
     atom    4 type  3   force =     0.00000000    0.00000000    0.00000000
     atom    5 type  3   force =     0.00000000    0.00000000    0.00000000
     atom    6 type  2   force =     0.00000000    0.00000000    0.00000000
     atom    7 type  2   force =     0.00000000    0.00000000    0.00000000
     atom    8 type  3   force =     0.00000000    0.00000000    0.00000000
     atom    9 type  3   force =     0.00000000    0.00000000    0.00000000
     atom   10 type  2   force =     0.00000000    0.00000000    0.00000000
     atom   11 type  3   force =     0.00000000    0.00000000    0.00000000
     atom   12 type  3   force =     0.00000000    0.00000000    0.00000000
     The SCF correction term to forces
     atom    1 type  1   force =    -0.00000000   -0.00000000   -0.00000000
     atom    2 type  2   force =     0.00000000    0.00000000    0.00000000
     atom    3 type  3   force =     0.00000000    0.00000000   -0.00000000
     atom    4 type  3   force =     0.00000000   -0.00000000    0.00000000
     atom    5 type  3   force =    -0.00000000    0.00000000    0.00000000
     atom    6 type  2   force =    -0.00000000    0.00000000    0.00000000
     atom    7 type  2   force =     0.00000000   -0.00000000    0.00000000
     atom    8 type  3   force =     0.00000000    0.00000000    0.00000000
     atom    9 type  3   force =    -0.00000000   -0.00000000    0.00000000
     atom   10 type  2   force =     0.00000000    0.00000000   -0.00000000
     atom   11 type  3   force =    -0.00000000    0.00000000   -0.00000000
     atom   12 type  3   force =     0.00000000   -0.00000000   -0.00000000

     Total force =     0.000133     Total SCF correction =     0.000000


     Computing stress (Cartesian axis) and pressure

          total   stress  (Ry/bohr**3)                   (kbar)     P=       -0.00
   0.00000008  -0.00000001   0.00000000            0.01       -0.00        0.00
  -0.00000001   0.00000008   0.00000000           -0.00        0.01        0.00
   0.00000000   0.00000000  -0.00000021            0.00        0.00       -0.03


     Writing all to output data dir ./tmp/PTOTiO.save/
 
     init_run     :      7.05s CPU      7.33s WALL (       1 calls)
     electrons    :   1230.48s CPU   1257.98s WALL (       1 calls)
     forces       :      2.18s CPU      2.20s WALL (       1 calls)
     stress       :     25.11s CPU     25.25s WALL (       1 calls)

     Called by init_run:
     wfcinit      :      6.77s CPU      7.01s WALL (       1 calls)
     potinit      :      0.08s CPU      0.09s WALL (       1 calls)
     hinit0       :      0.16s CPU      0.18s WALL (       1 calls)

     Called by electrons:
     c_bands      :   1089.89s CPU   1112.20s WALL (      71 calls)
     sum_band     :    136.71s CPU    141.61s WALL (      71 calls)
     v_of_rho     :      0.05s CPU      0.05s WALL (      72 calls)
     newd         :      1.26s CPU      1.45s WALL (      72 calls)
     PAW_pot      :      2.45s CPU      2.47s WALL (      72 calls)
     mix_rho      :      0.14s CPU      0.18s WALL (      71 calls)

     Called by c_bands:
     init_us_2    :     15.71s CPU     16.22s WALL (   52925 calls)
     init_us_2:cp :     15.57s CPU     16.10s WALL (   52925 calls)
     cegterg      :   1012.43s CPU   1033.12s WALL (   25915 calls)

     Called by *egterg:
     cdiaghg      :    372.78s CPU    374.75s WALL (   67892 calls)
     h_psi        :    488.63s CPU    505.98s WALL (   68257 calls)
     s_psi        :     34.25s CPU     34.66s WALL (   68257 calls)
     g_psi        :      3.16s CPU      3.19s WALL (   41977 calls)

     Called by h_psi:
     h_psi:calbec :     42.43s CPU     43.70s WALL (   68257 calls)
     vloc_psi     :    405.85s CPU    421.48s WALL (   68257 calls)
     add_vuspsi   :     36.83s CPU     37.27s WALL (   68257 calls)

     General routines
     calbec       :     62.65s CPU     64.53s WALL (   95997 calls)
     fft          :      0.07s CPU      0.09s WALL (     296 calls)
     ffts         :      0.01s CPU      0.01s WALL (      71 calls)
     fftw         :    439.68s CPU    456.49s WALL ( 8848958 calls)
 
     Parallel routines
 
     PWSCF        :  21m 7.33s CPU  21m38.93s WALL

 
   This run was terminated on:  10:44:58  24Mar2025            

=------------------------------------------------------------------------------=
   JOB DONE.
=------------------------------------------------------------------------------=
